ITEM: TIMESTEP
99
ITEM: NUMBER OF ATOMS
512
ITEM: BOX BOUNDS pp pp pp
0 8.000000
0 8.000000
0 8.000000
ITEM: ATOMS id x y z vx vy vz 
0 0.983798 7.737683 2.547988 0.995820 1.207841 -1.333122
1 2.201459 2.046567 7.631515 -0.983604 1.560282 1.182887
2 0.122299 7.347497 2.728843 1.329303 1.348437 0.072055
3 1.755136 7.790032 5.476493 0.056738 1.719656 0.594136
4 5.874027 0.559504 2.789064 -1.053835 0.808275 0.849829
5 1.013315 0.616765 5.680953 1.312391 0.000530 0.318981
6 3.587072 2.375643 6.612641 1.604613 -1.630389 -1.420445
7 3.399394 1.752058 0.666437 -0.724893 0.092253 -0.766680
8 0.888379 2.386286 0.219008 0.204086 -1.089615 0.667314
9 2.926217 1.447316 1.491650 -0.798689 2.323252 -0.688679
10 3.343985 0.763227 7.651895 -0.832444 0.392010 -1.365138
11 7.332831 3.323358 2.557224 0.206655 0.384042 0.009019
12 7.182831 7.813287 3.753465 -0.731308 1.643509 0.236841
13 6.429486 0.461339 3.624447 0.151368 0.558163 -0.536199
14 1.307074 0.875997 0.797578 1.528954 -0.358260 -0.791357
15 0.746542 2.720086 1.227764 -0.425957 -1.136043 0.054713
16 1.426565 3.255537 0.401916 0.137876 0.442499 -2.114848
17 7.440525 2.588561 1.761929 0.762278 -0.612778 -0.113784
18 1.943488 1.463219 1.923288 -0.851495 0.251653 -0.239673
19 6.759842 2.489414 2.588715 1.699926 -1.019126 -0.142940
20 7.141435 1.765912 3.826393 0.178375 -1.785133 0.249132
21 1.537718 2.342560 5.634654 0.328849 0.237305 -1.470795
22 6.413191 6.042855 6.284019 -0.168854 -0.510946 1.278790
23 0.615555 4.190925 0.654497 0.138546 0.014070 -0.458917
24 2.114762 3.395963 1.217248 1.622239 0.140939 1.274090
25 0.165713 4.048808 2.402405 0.399580 -0.305054 -0.198415
26 1.771412 4.316541 3.755077 -0.650572 0.965943 0.844453
27 7.910114 3.829091 6.062226 -0.629550 -1.243869 -0.733421
28 6.835588 3.974317 7.348447 0.854071 -0.509885 0.958852
29 1.150256 4.024967 5.979825 0.288852 0.846270 0.189067
30 6.226972 5.189916 5.610731 -1.760840 -0.160645 4.201667
31 2.868721 2.728405 0.004397 1.317431 -1.383044 -1.405424
32 7.383451 6.162090 5.966313 -1.847660 -1.556699 0.502636
33 2.302231 6.947469 0.238103 -0.426287 0.868803 -0.871109
34 6.476316 5.560740 4.095261 1.380189 -0.675787 -0.747751
35 1.034564 3.209583 2.970059 -0.678512 -1.285438 -0.125008
36 0.624128 3.346276 5.227850 0.875839 0.012079 2.013990
37 2.265975 5.250169 5.754193 -1.142401 1.176711 -1.809614
38 1.100127 5.648683 7.087046 0.367878 0.484355 0.068771
39 1.109780 7.180895 7.651618 0.778166 0.725400 -0.229756
40 0.949512 5.059295 0.014990 -0.933534 0.692721 -0.790716
41 0.643346 6.220026 1.580022 2.371959 0.225581 -0.411075
42 7.633639 5.781886 4.117173 -1.712868 1.211669 0.366566
43 7.890330 5.798898 3.002031 -0.902909 -0.523894 0.557543
44 2.957093 5.547419 4.595041 -0.940916 0.743752 0.729755
45 1.232279 4.982408 5.531638 0.448772 -0.560738 0.164194
46 1.329080 6.025620 5.925744 -0.378316 0.516269 -0.600670
47 7.705869 6.339985 7.982167 -1.055393 -0.848199 0.152578
48 6.713963 5.020722 3.366415 0.489987 0.455907 -2.364242
49 6.773490 6.597657 2.268855 -1.073778 0.236761 -1.003042
50 0.364193 5.550137 5.385016 -2.033000 0.225253 -0.131699
51 0.290583 5.420009 6.362080 -0.848550 -0.746612 -1.760089
52 1.348540 5.407701 3.849763 -0.909585 -0.795900 1.661753
53 0.228876 7.733505 3.718531 0.371270 1.647863 1.381816
54 2.687591 0.378015 6.855158 -0.490327 -0.266101 0.146714
55 7.259938 0.753127 6.838257 -1.254318 -0.723170 -0.532905
56 1.349132 6.619541 6.863235 -1.008084 1.265337 -1.321558
57 0.086184 6.722697 3.506448 -0.921574 -0.904509 2.600404
58 1.322859 6.822080 5.266667 0.848235 0.700741 0.182993
59 1.701629 6.215640 3.329894 0.710141 -0.358973 0.827474
60 1.326802 0.222995 3.486012 0.637072 -1.436157 0.607119
61 7.932156 0.232731 5.362245 0.030309 -0.432738 2.241677
62 1.526910 1.586196 0.097519 1.175982 0.110695 -0.401518
63 7.311165 7.417154 1.963819 -0.153120 0.400055 -2.083481
64 3.502208 7.209200 1.595125 -1.390123 -1.577808 2.519801
65 3.830418 2.875043 0.582151 0.583907 -1.783244 -1.299907
66 7.472342 1.690849 2.504083 -1.223900 -1.283336 3.544031
67 0.532639 0.610271 2.972803 -2.096231 -1.114300 0.313795
68 0.532573 7.361512 5.334175 0.876922 -0.732817 -1.619193
69 1.949888 1.023560 3.995015 -1.357666 -0.445162 -0.326156
70 0.985369 0.806849 6.643848 3.169262 -0.793702 1.619228
71 1.864684 0.537767 6.192343 -1.517826 2.178543 -1.196589
72 3.715971 3.325705 6.315531 -0.615666 0.280629 -1.335755
73 2.252352 1.240412 0.763794 1.591631 -0.878464 -0.565677
74 0.282080 1.691521 3.085379 0.105650 0.386552 -0.620621
75 1.101330 2.254228 2.530930 1.070930 -0.428180 0.265884
76 0.768165 1.082122 3.774593 -0.536316 -0.129435 -1.845788
77 1.141131 1.242389 4.878374 1.413489 -1.194171 -1.279700
78 1.769164 2.343171 6.720454 3.003530 -0.991727 -0.697846
79 2.112358 2.407243 0.629182 -0.095845 -0.584754 -0.640387
80 1.221448 1.835791 1.170230 0.274391 2.498190 0.550681
81 1.788894 2.343703 3.227992 1.254317 -0.763714 -1.998742
82 7.499385 0.948516 3.400147 -0.337406 1.508392 1.348780
83 0.899018 2.358611 3.510978 -0.397970 0.909649 0.528369
84 0.622618 2.009741 5.243320 -1.523367 -1.290877 -2.479911
85 7.515212 4.538659 6.668270 0.342033 0.061367 1.277260
86 0.411247 3.226631 0.013333 1.015229 1.836268 -0.149395
87 2.716784 3.485180 6.964006 -1.568838 -0.540825 0.843153
88 0.174742 3.346100 1.661550 1.019802 -0.787840 -2.228346
89 1.052841 3.660122 1.426250 -0.539826 0.208045 -0.729501
90 2.278400 3.396647 3.354097 -1.165360 -1.069677 0.567515
91 1.538879 1.883670 4.155346 -2.160512 0.371387 -0.886004
92 6.340882 1.919533 5.358297 0.171117 1.178989 2.846150
93 2.393689 4.185809 6.349598 1.278806 2.225098 -1.341456
94 2.543111 2.680737 5.865183 -0.501295 -0.814668 0.985220
95 7.374555 5.481715 6.779703 0.827886 2.241945 -0.400949
96 3.453643 3.732521 0.066359 -0.984604 1.362026 -1.770442
97 0.667538 5.415026 0.922496 -0.473279 1.655459 0.108624
98 0.603896 4.588843 1.670224 -0.179354 1.838067 -0.188222
99 1.668503 3.413642 6.525915 -2.270261 -1.768512 0.977380
100 0.206781 2.652756 4.420225 -0.599767 -2.898949 -0.216231
101 6.779301 5.014917 7.701885 -2.700524 0.874371 1.122189
102 6.327489 4.166444 1.401803 -0.749787 2.328971 -1.288567
103 1.893744 5.098681 7.536375 -0.137315 -0.528222 1.152525
104 2.175000 7.050716 4.824584 0.598193 0.764580 0.455009
105 0.633997 6.174382 7.819932 -0.997294 0.200268 1.592696
106 1.852395 5.154501 2.942614 -1.562889 -1.631360 0.621858
107 4.192603 3.012831 3.351995 0.829462 -1.197546 0.753641
108 7.417587 3.754147 5.080127 -1.938128 0.535263 1.170218
109 0.335430 4.537198 5.343447 0.956497 0.064693 -1.295745
110 1.008157 7.413599 4.312155 -1.027102 1.822907 1.193343
111 7.424767 6.918562 7.057787 -2.707010 -1.626011 0.968459
112 0.563687 7.286802 1.635117 0.199021 0.917051 -0.713737
113 7.951886 6.799570 0.758325 -0.543857 0.889979 -0.299313
114 1.243223 5.188650 2.059954 -0.053146 -1.425405 -0.721805
115 0.866410 5.753087 2.874561 1.348507 -0.904682 0.635562
116 2.536237 4.961336 3.831163 -1.035745 0.437373 -1.792933
117 1.953405 4.954491 4.627858 1.248119 -0.647305 1.289972
118 0.437953 7.163380 6.744983 -0.518703 -1.139806 1.622603
119 6.608930 1.380592 1.849927 1.869495 -0.523113 1.130656
120 0.709897 0.025152 0.188511 -0.812645 -0.753861 -1.212045
121 2.286458 5.022921 1.977479 2.913833 0.252003 0.274113
122 2.178404 0.485499 1.415914 0.626014 -0.784679 -0.806070
123 2.400283 7.424969 1.148694 -1.911669 3.873130 1.227347
124 2.297120 7.782472 2.075106 -0.897047 0.146542 -0.128210
125 1.144482 4.020999 4.728920 2.306345 1.776193 -0.717731
126 2.671251 7.865912 7.859425 -1.120698 1.710439 0.612634
127 1.858538 1.267189 7.029544 0.177471 0.478564 -1.707868
128 4.141687 1.228233 0.055491 -0.250617 -1.654389 1.211201
129 2.993478 1.440096 6.826165 -1.015917 -0.700049 1.453581
130 2.975905 0.585707 0.572054 1.360706 0.332520 -0.694560
131 1.632891 0.509599 2.236190 -2.041537 1.474152 -1.219077
132 2.358451 2.554118 4.095694 -0.261089 -1.454927 -1.618743
133 0.961197 1.837092 7.229898 -0.379532 -1.167803 -0.555162
134 1.358922 7.546968 6.456830 -0.697956 1.554428 -1.971122
135 2.430912 0.884200 7.760061 -0.483457 0.060289 1.197140
136 5.026346 1.472753 7.141617 -0.257804 -0.570106 -0.785911
137 4.096009 1.815931 1.550865 -2.021314 -1.045475 1.358155
138 1.795070 2.483822 1.651702 -0.290812 1.517759 1.817280
139 1.494235 1.279472 2.955752 -1.333686 1.361423 0.862369
140 1.233169 2.658536 4.651347 0.595737 0.986506 0.260828
141 2.945378 0.774578 5.991968 0.912706 -0.100915 1.139424
142 6.093368 0.661963 5.920033 -0.885773 -1.666125 -0.343503
143 1.925375 2.996644 7.465249 1.592497 0.730587 0.065753
144 2.990247 2.470139 1.256804 -0.799551 0.204371 0.949915
145 3.266094 4.631284 2.298084 1.522746 -1.879899 -0.230474
146 3.055369 3.421808 0.962901 1.459026 -0.146531 -0.622228
147 2.873510 2.535917 3.187160 0.099934 1.090721 -2.171431
148 4.205442 4.294891 6.462934 1.267301 0.523144 1.422196
149 7.085908 1.740316 4.828829 2.790128 -1.098867 -0.513818
150 1.156892 0.789260 7.633891 0.898141 0.973583 0.493528
151 4.016907 1.396045 6.979699 -1.688133 0.130903 0.941781
152 0.600060 4.468446 6.776595 -0.936646 -4.010813 1.327521
153 4.422248 3.625678 0.814576 -1.435533 2.091025 1.624175
154 3.198190 3.082426 4.109099 1.434466 1.499051 -0.205497
155 2.984352 3.676434 5.754874 0.962756 -0.189251 -1.132672
156 0.699022 3.333779 3.934396 0.767876 -0.920400 -0.547760
157 2.126259 4.210001 5.308917 -2.119701 0.476386 -0.269787
158 2.496465 3.666749 0.219631 1.362986 -0.574306 -1.798190
159 0.479489 3.447401 6.746845 0.795716 -0.935709 0.306667
160 3.292532 1.918120 7.653889 0.448676 1.693696 0.471910
161 2.700046 4.486580 1.196558 -0.119929 0.701749 -0.519992
162 1.739544 4.312572 0.537765 -0.242127 -1.604077 -2.639219
163 1.369059 4.079467 2.800303 1.038195 -0.757566 0.374260
164 3.992660 4.434250 5.500518 -1.346904 0.060620 -0.164240
165 2.746626 4.609761 0.052078 -1.029099 -2.816620 -1.107469
166 3.521500 5.489764 5.359997 -1.904855 0.342374 -1.160841
167 3.347478 4.337753 7.209395 -1.062915 0.075074 -0.326180
168 4.294653 6.878326 7.155633 2.763506 -1.043018 0.867289
169 0.448570 7.972701 6.202774 0.310093 1.035767 2.601849
170 1.691071 6.138231 7.756680 -0.942519 -0.121437 1.801286
171 3.057288 5.676293 0.949353 0.322089 -0.044533 -0.694938
172 3.120975 5.875616 1.986490 -0.180728 0.156657 0.446618
173 4.583830 4.964097 4.896258 -1.221492 -0.182784 -0.253165
174 3.788778 5.639602 6.393689 -0.059687 -1.374426 -0.387202
175 2.849189 6.060435 5.976058 1.663525 -1.090573 0.108969
176 0.070797 7.240262 7.821155 0.655867 0.163404 3.141490
177 3.512695 5.971466 0.152000 -0.616427 0.551209 -2.646742
178 2.996423 6.677060 0.921002 0.311823 -1.177178 -0.394182
179 2.445829 4.328873 2.937724 -0.415072 0.728672 -1.187154
180 1.221583 5.747601 4.812942 1.070866 3.090169 1.871266
181 1.549621 6.997143 1.512669 -2.865293 0.647493 -0.219186
182 2.043933 6.656019 6.112131 -0.050515 0.267506 0.117115
183 1.268186 6.305799 0.695032 1.070810 1.113324 -1.610018
184 3.243766 6.932325 7.752013 0.591676 -0.246854 2.648630
185 1.207716 7.116822 3.344529 -1.824832 -1.598401 -0.539276
186 2.229965 7.585449 3.057485 -1.274909 1.392674 -1.922630
187 3.394253 7.755513 2.379442 0.503815 -1.646924 -0.868926
188 3.186646 1.845537 5.580193 -3.222843 -0.841392 -1.661886
189 0.609542 0.036835 7.262889 0.282840 -0.734287 -0.843143
190 2.712719 0.008601 5.017893 0.565534 -0.706340 0.649433
191 2.255736 7.121833 7.151073 1.680291 1.483529 -0.762368
192 3.330916 7.560576 0.568742 -0.269666 -1.094914 -0.460653
193 3.043296 6.943715 6.498330 0.131962 -1.466335 1.361745
194 2.911292 0.708229 2.269074 -0.572653 -0.137351 0.906692
195 3.359028 1.746285 2.280971 -0.793700 0.125993 -2.746378
196 3.195323 0.118129 1.407010 -0.642670 1.574353 -0.024342
197 2.920288 1.312871 4.682713 -1.363284 0.512992 -1.454493
198 1.738049 7.979603 7.424770 -1.273484 -1.451619 0.462314
199 3.736627 6.414326 5.865260 -0.809583 -0.185665 -2.575370
200 5.575085 3.198633 7.195504 0.227408 0.907423 -0.908486
201 7.316602 1.494493 6.034860 0.175021 0.576581 -0.391837
202 3.664280 3.194344 1.778287 -0.921233 0.559871 2.262214
203 3.915428 2.466937 2.423076 1.338619 -1.299140 -1.832910
204 2.178757 1.850140 5.066080 0.791933 -0.331876 0.138084
205 2.259106 1.664315 6.074584 0.221027 0.753138 -2.260375
206 0.038965 2.492706 6.948384 0.031586 0.611969 1.616616
207 6.106655 1.891068 0.712984 0.691183 -1.500546 1.311227
208 2.670089 2.475343 6.856678 0.368894 2.810260 -1.532989
209 3.741811 5.193814 7.655572 1.183141 -0.678101 -0.083994
210 5.504719 2.302352 2.300694 -0.636707 0.611478 -0.621967
211 1.637043 3.328794 5.408007 -2.001909 -2.092938 0.402559
212 4.051186 2.667438 4.350686 0.594075 0.176925 0.271343
213 5.001793 4.250080 5.750105 2.100665 -0.078389 -0.176777
214 3.042060 2.344113 4.739222 0.420576 1.831995 0.062775
215 4.549937 3.477696 5.522678 -0.260752 -2.459195 -0.671404
216 2.697573 2.646846 2.230946 -0.423148 2.961426 -0.268220
217 1.834478 3.095923 2.347482 -1.319613 1.648601 -0.268824
218 5.288319 2.632379 5.338372 -0.922418 -0.691029 -1.091484
219 6.811873 4.733180 4.554847 -0.381082 -0.836331 0.815057
220 3.009339 4.671093 5.158730 0.157322 -0.574624 0.672108
221 4.561484 1.809195 5.470589 -1.540063 1.916259 0.027461
222 4.871249 2.470416 6.446246 -1.266737 -0.696429 1.636601
223 5.498452 4.898801 6.539163 0.350428 -1.296990 0.247686
224 4.072598 0.382894 0.452160 -0.795131 -2.454508 0.478415
225 1.701617 5.243552 1.113198 0.662187 2.024583 0.600777
226 1.793714 4.178101 1.922198 0.366150 -1.674009 -0.521650
227 3.445321 4.398529 3.287423 -1.443120 -0.445953 0.922965
228 2.964349 4.145086 4.306196 -1.809276 -1.549645 -2.001244
229 4.013390 5.949338 4.564122 0.255849 1.783258 -2.196265
230 4.578722 5.114173 7.031177 0.439591 -0.294782 -0.390714
231 3.691048 6.116448 7.178380 0.044571 1.511614 -1.573405
232 2.692969 5.102626 6.892856 -0.600602 -0.173294 -1.033124
233 4.791644 3.184733 7.974860 0.606278 1.287727 -1.912261
234 3.115565 6.488334 3.043121 0.147539 -1.270939 -0.130663
235 4.566058 2.677207 1.413814 1.037353 -1.459853 -0.936532
236 2.165636 6.041796 5.024257 -1.520572 -0.364009 1.853748
237 1.734431 6.877147 2.415723 -1.272749 0.984426 -2.717332
238 4.521464 5.159532 5.901319 0.587899 -0.345103 0.037567
239 5.430999 5.817344 6.007990 0.279639 -1.889099 -0.950073
240 2.686610 6.004740 7.405708 -0.758826 -1.652345 0.182479
241 4.179044 0.068237 3.348267 -1.957242 1.562111 2.011975
242 2.378139 0.555408 3.206926 -0.574059 0.538562 -1.923899
243 1.504001 6.609448 4.229856 0.803369 -0.041640 0.878424
244 3.442153 5.538757 3.773778 -0.075349 -0.144065 0.745862
245 2.786959 5.365527 3.020378 0.274697 0.740024 2.229461
246 6.000394 6.476551 4.182058 1.788402 0.629666 1.217146
247 5.780797 5.727183 7.288420 -0.571301 0.006318 1.501617
248 4.262741 6.753882 0.108981 -0.277613 -0.768110 2.437803
249 4.573525 5.096102 2.009818 -0.170517 0.820617 -0.389785
250 3.728548 6.593187 3.799140 -1.068058 0.431312 0.233297
251 2.064672 6.019638 2.422896 2.371569 -1.457066 -0.516970
252 3.080775 0.467817 4.044544 -0.065696 -1.719944 1.770560
253 2.140304 7.772777 4.045950 0.265071 -0.792683 2.382658
254 5.674270 6.666905 6.495720 0.230523 -0.600572 -1.577606
255 3.563017 7.809848 7.294027 -0.955196 0.127792 -0.946057
256 2.773405 7.076868 5.522010 -0.969358 1.019281 -0.767487
257 4.979650 7.503956 0.078225 0.041805 -0.268819 -2.989656
258 2.706042 6.859939 2.189170 1.199753 -0.327075 1.247228
259 3.922765 0.871580 2.321064 -0.391309 0.235133 -0.984030
260 3.874148 1.747844 4.860420 0.115507 -0.022736 0.042659
261 3.919431 1.339337 5.950861 2.369154 -0.617961 0.090828
262 4.308686 7.963527 4.827832 1.738886 1.656169 -2.509563
263 3.799840 0.527700 6.703918 -1.657455 0.255643 0.104767
264 5.286586 3.457242 6.331115 1.252842 -0.945680 -0.155621
265 4.927173 0.285887 0.882200 -0.335801 -0.883414 0.122750
266 4.147884 0.127962 1.540925 1.068708 -1.219501 0.478334
267 3.408658 0.910542 3.220000 0.380691 -2.308705 -0.876239
268 3.540840 7.370999 4.449798 -0.161498 -0.607430 -0.273990
269 3.214697 7.848674 6.047681 1.284888 0.857701 0.423109
270 2.340559 7.629954 6.364726 -0.419027 -0.076869 1.091940
271 4.452601 0.378876 7.410017 1.154905 2.474508 -1.963895
272 3.533254 3.016203 7.380322 -0.127939 1.064427 2.020870
273 5.752613 3.568531 0.840013 -0.855114 0.154006 0.097246
274 5.481326 0.070933 1.805051 -2.904863 1.028228 -1.046706
275 2.832873 3.649623 2.138898 0.192135 -1.077896 1.080485
276 4.102079 0.810537 4.107266 -1.643438 -0.195051 -0.044809
277 4.810804 1.223594 6.278024 1.199077 0.456977 -0.045065
278 4.317189 2.175582 7.430758 2.426315 -0.539289 -1.557221
279 6.589112 2.194628 7.914030 -1.269607 -1.810477 -1.579185
280 4.572402 3.148540 7.092754 1.058442 0.139779 -0.398018
281 3.655553 4.722975 0.560730 -0.074335 -1.077479 -0.584586
282 4.433611 2.054405 0.421876 -0.420321 0.385178 -1.810106
283 2.630721 3.258525 4.997760 -0.543491 -0.430277 -0.882216
284 5.018856 2.827258 4.064561 0.585906 -1.203095 -0.360697
285 5.603076 3.524932 5.118967 -1.172410 0.325242 0.435102
286 5.617306 1.763438 5.980880 -0.277113 -1.771026 0.751285
287 5.901319 4.076616 7.687278 0.399544 -1.874416 1.028404
288 4.881892 6.037138 6.813814 -1.593815 2.142988 -1.018725
289 4.256198 5.496553 0.657147 -0.644855 0.059289 -1.282260
290 3.626957 3.638980 4.885648 -0.480316 1.563692 0.880705
291 6.549392 2.828725 5.439236 -0.583872 -0.769206 -1.445754
292 4.635328 3.796566 4.568209 0.296758 -0.889235 0.160092
293 3.303668 4.687741 6.133605 0.346763 -1.940794 -2.504443
294 5.782253 6.271605 1.161923 -1.486683 2.058244 -0.869736
295 5.309755 5.008936 7.812686 2.303815 0.713620 1.296710
296 3.917456 6.410327 1.140626 1.274063 -0.195933 0.862436
297 2.023467 5.778436 6.647998 -0.663904 0.819078 2.577024
298 3.793809 4.110631 1.438311 -0.606774 -0.824665 -0.398678
299 3.185216 3.459948 3.082200 1.337642 -0.709096 1.156634
300 4.855759 5.981251 5.231613 2.527368 2.989766 -0.662424
301 4.312139 6.868781 4.927050 0.607051 0.554705 1.579712
302 5.615716 5.569922 4.720991 -0.957454 1.737868 0.407998
303 6.452092 7.983981 6.772983 0.382722 -1.309508 0.092335
304 5.056206 6.399528 0.524625 2.226026 1.262025 1.205514
305 3.720720 5.282741 1.527743 -1.632847 0.249413 -1.285853
306 3.763580 2.698093 5.454518 0.052477 -0.431475 -0.014047
307 3.772511 4.775980 4.386101 0.952361 -1.268976 -1.274248
308 2.680656 6.947306 3.855774 0.463203 0.901322 0.263015
309 4.575835 6.726743 6.144709 -0.156984 2.153767 0.530296
310 5.395737 6.611876 7.576628 1.325898 -0.631184 -0.945483
311 6.099538 5.271588 1.540853 -2.821057 -0.977337 -0.048323
312 5.372769 7.283223 1.142816 1.380152 1.894227 -0.157153
313 6.320713 7.194034 1.525349 -1.211426 -0.301571 0.716745
314 3.873498 7.141282 3.002676 2.208285 0.212930 0.523174
315 3.131040 7.705468 3.415098 0.996917 0.045553 -0.155840
316 1.408334 0.374028 4.464492 0.647052 -0.487928 -0.609726
317 4.414053 7.337844 3.943093 -0.455773 -0.333968 -1.285163
318 5.679239 0.581858 6.908085 -1.295347 0.219882 0.556699
319 5.383928 0.518627 7.960271 -1.483140 0.608489 -0.744459
320 5.982073 1.387965 7.604101 1.386557 1.750938 -0.572377
321 4.717734 0.116674 2.439785 -0.104030 0.378644 1.198981
322 4.588146 0.991829 3.148509 -1.111910 0.451722 -0.773489
323 5.596412 5.742147 3.629999 -0.432969 -0.337595 2.137431
324 5.284802 7.796946 4.295267 0.274585 2.630018 -3.374913
325 5.181806 0.122268 5.328325 1.681680 -2.714769 -0.715698
326 6.347409 7.712889 5.566939 -0.973421 -1.123711 -0.284065
327 6.772938 0.873166 5.267439 0.507588 2.792928 0.077715
328 5.048735 0.926755 2.048034 -0.638011 -1.794944 1.422127
329 6.728811 2.870169 0.772864 -4.300383 1.810233 -1.165020
330 4.285642 7.370222 0.835569 2.024221 -1.673022 0.744202
331 6.088643 0.325676 4.722431 -0.978694 -0.295974 0.090094
332 6.230155 7.426530 3.780506 0.591969 -0.767509 0.674407
333 3.517268 0.650062 5.097086 1.076340 -2.136222 0.136837
334 4.693280 1.692806 4.025288 -1.958918 1.652293 0.383749
335 0.301333 1.925862 6.215664 -1.948919 1.005947 -0.885254
336 6.648592 3.080617 7.116633 -1.821269 -0.588032 0.359369
337 5.365828 2.595194 0.720232 -0.679276 -1.562817 -2.870153
338 4.805303 3.145893 2.464143 1.080638 -0.597406 -0.043906
339 4.581203 1.695252 2.429999 -0.323304 -2.104708 -2.069452
340 3.829598 2.091632 3.431389 3.819018 1.547829 0.393042
341 6.434642 5.143263 6.740556 -0.758862 -0.234511 1.194713
342 5.393580 2.227289 7.790072 1.361785 -0.374799 -1.913625
343 5.888397 7.829732 7.537923 1.084958 1.722255 0.837780
344 5.586048 1.221685 5.143812 0.800905 0.455112 0.386676
345 5.590441 4.828722 3.166470 -1.147638 -1.383189 1.533061
346 2.450970 1.711246 2.753708 1.785910 -0.764284 0.398500
347 2.860007 1.628942 3.708472 -0.317754 0.375636 -0.997161
348 6.428547 1.271602 4.192775 0.494861 3.330918 1.123148
349 6.095434 4.046713 6.513625 0.198362 -1.010055 2.531830
350 5.976513 2.792044 6.144508 0.802640 0.331817 0.847420
351 5.068677 4.184107 7.039277 1.101902 -0.768181 2.133046
352 4.310382 4.339530 7.724305 1.117276 0.872028 -0.482382
353 6.998215 5.536474 1.898579 0.645943 -1.167281 1.100788
354 6.079587 2.856890 4.381837 0.760832 -0.780218 -0.618191
355 4.893312 3.687677 3.413390 0.780804 -0.128928 -1.177333
356 0.698865 4.756429 2.808207 2.215069 1.978382 2.538082
357 6.946821 4.868535 0.894209 -0.946682 -2.668826 -0.299189
358 5.098819 4.252737 0.358691 1.458793 -0.266695 -2.640680
359 7.051711 0.223738 5.947035 -1.923375 0.506089 0.849336
360 3.929881 3.817151 2.673116 -1.366659 0.309449 -1.336807
361 2.258860 5.626090 0.350627 0.548736 -0.363981 0.239917
362 4.693149 6.009440 1.435748 0.767859 0.943152 1.868893
363 3.772545 5.548195 2.715661 0.065255 0.902682 -0.767862
364 5.509329 3.951736 2.273434 -1.537288 -0.184943 0.949719
365 6.788680 5.713871 4.994797 0.449130 -2.778513 -0.164359
366 3.883664 3.806854 3.830459 -0.382484 1.461028 -0.133214
367 6.440471 6.891466 7.339002 1.539342 -0.505950 2.161692
368 2.255521 6.073034 1.345327 0.723739 2.128666 0.167171
369 5.169231 5.517856 2.608117 1.715394 0.298467 1.654987
370 4.267620 4.975302 3.468158 -1.393235 -1.204145 0.806451
371 6.143599 5.603226 2.544250 -0.143352 -1.149497 -0.621829
372 4.801406 5.417879 4.079612 -0.147663 0.016588 0.110231
373 6.086836 6.368310 5.421441 1.917484 -1.299158 1.165496
374 7.205171 1.292829 0.014989 -0.909820 -0.155888 -0.856072
375 6.607321 0.619722 7.645757 0.166821 -0.287183 0.006348
376 6.925298 7.524146 0.725141 1.379229 0.779416 0.031778
377 5.918291 7.060844 0.338232 1.118647 1.781866 -0.006658
378 5.552093 7.371342 2.500040 -0.218509 0.821031 -1.077005
379 4.437442 6.034591 3.258432 2.911349 0.714337 2.043991
380 4.072006 7.527701 6.470417 1.664248 -1.763071 -1.498352
381 5.116344 4.602642 4.059092 -1.657978 -1.543657 -0.941052
382 5.046285 7.653693 6.917310 2.072153 1.829372 -0.086262
383 4.100971 0.170919 5.783205 -1.272474 1.059459 -0.965440
384 6.781531 0.884443 0.780692 1.009901 0.123810 0.322402
385 7.966872 7.676578 0.843006 -2.412925 0.181283 0.335919
386 6.258446 2.157773 3.314620 -0.978188 0.135358 -1.024105
387 5.998202 6.570152 2.990762 -0.911035 1.985755 -0.765009
388 5.140278 6.942326 5.370552 -2.841158 -1.717928 0.464687
389 5.658041 7.777447 6.192192 0.577425 -0.244223 -0.511560
390 7.533876 0.781654 4.338434 -1.204157 1.038854 -0.267129
391 7.804469 2.755988 5.414650 1.066308 0.754993 -0.668939
392 5.228555 1.284854 0.482157 2.512132 0.109801 -1.772473
393 7.879754 2.116495 0.010882 0.060436 -0.860665 0.289537
394 4.386057 1.028987 1.130379 0.911597 -0.462898 -0.252423
395 5.225705 0.001964 3.281417 0.105278 -0.689700 -0.227826
396 5.910468 7.265374 4.846122 -0.948741 1.274648 -0.897177
397 6.874963 2.289262 6.217220 0.984389 0.544607 0.476237
398 0.268500 1.811959 1.018428 -0.443881 0.919142 -1.757396
399 6.031332 2.231731 6.945261 -0.176007 0.518362 0.938620
400 7.796431 2.930018 0.831605 0.992564 0.200330 0.820465
401 4.537701 7.259838 1.971215 1.116961 -0.818780 -0.887496
402 6.882325 4.187402 2.562180 -2.292005 1.832092 0.343793
403 5.212176 0.833415 4.274840 -1.707875 1.390836 0.656199
404 4.571636 0.938107 5.112837 0.088274 0.110592 -1.886249
405 7.305042 3.052572 7.929802 3.731017 -1.308347 1.564405
406 7.617849 3.842306 0.866821 -0.519645 0.958014 1.383296
407 7.725490 0.408013 0.098553 -1.942618 0.263555 -0.419298
408 7.886103 4.779913 0.721015 -0.131958 -1.023280 0.741718
409 5.234477 1.806612 1.402743 0.647901 1.420997 -2.125322
410 5.590694 3.714115 4.064894 1.135673 -0.119076 0.656063
411 6.807848 3.191589 3.553474 0.771554 -0.655346 -0.138684
412 6.114071 4.581296 4.007207 -0.101459 1.348728 0.258413
413 5.621725 1.983128 4.316528 -0.962202 -0.751692 1.702016
414 4.655975 3.876966 1.834910 -1.167189 2.224849 -0.761043
415 5.450060 3.149748 1.650380 -0.418584 0.641026 1.283074
416 4.610043 5.857483 7.824317 -1.901160 -3.356319 0.369586
417 6.801102 6.145165 1.165023 -0.024062 0.751891 -0.243472
418 7.940348 3.549002 3.308593 0.030324 -1.757955 0.825134
419 0.139851 4.049004 4.365692 -1.847196 1.574605 1.451829
420 6.539579 3.774188 4.518859 0.284112 -0.793399 2.177772
421 6.984795 3.545576 6.137780 0.595252 -1.367370 -0.768059
422 0.116018 6.232998 6.971465 0.481210 0.504290 0.706662
423 6.870189 5.950737 7.415915 1.874530 -0.833663 1.694482
424 0.766993 6.642333 2.563421 -0.439999 0.349679 1.373104
425 7.494192 4.848702 2.627679 0.903211 0.602631 -0.631610
426 2.466638 5.979584 3.824284 2.323412 0.960750 1.045191
427 0.579638 4.945898 4.472005 1.805356 1.936397 0.177595
428 3.129409 6.558183 4.843633 -0.846771 1.357766 2.764628
429 5.659451 4.570984 4.976577 2.175151 0.968018 -1.898113
430 6.940037 6.682939 4.030607 0.086055 1.402645 0.324730
431 5.350617 5.499583 0.658130 1.098442 2.100912 -2.705377
432 6.038081 0.014570 0.568409 -0.572811 0.509419 1.064366
433 6.273097 5.687263 0.290763 0.450123 1.944326 0.895393
434 4.708978 4.489542 2.720940 2.008881 0.171183 0.165357
435 4.001770 6.443068 2.236172 -1.413417 1.389553 -1.398602
436 7.808783 7.307651 4.504461 2.403805 0.005991 -1.482575
437 6.899543 6.798147 4.976692 0.489037 -0.302654 0.565943
438 7.323759 5.213579 5.823794 -1.012681 0.188279 -1.920396
439 7.722138 7.805432 6.910884 0.159694 -0.142548 -1.128081
440 7.367189 0.238561 1.359736 1.645449 -1.814758 1.971371
441 5.395022 6.488081 2.096068 -3.914948 0.018073 -0.559932
442 6.833347 6.089149 3.246375 0.630374 -1.132762 -0.756609
443 4.881237 6.460900 4.213627 0.348390 0.515449 0.485678
444 6.690977 7.019710 6.310738 0.115068 -1.305611 0.429297
445 0.085200 1.727826 4.320186 0.282522 -0.089113 -1.579469
446 7.672387 1.169380 1.484708 0.226365 -0.031320 2.621033
447 7.591410 3.500645 7.001766 1.972319 -0.280145 -0.830355
448 4.972966 6.907811 3.215444 0.435493 0.786829 -2.751317
449 7.718131 6.365970 2.145370 1.664997 1.141412 0.904006
450 6.560639 1.285341 2.868088 -0.617206 -2.500701 2.206693
451 7.311338 0.305605 2.612675 -0.663756 -0.578332 1.916317
452 7.032526 7.876547 4.806247 0.001077 0.328744 2.834665
453 1.220214 1.510426 5.978883 0.922910 -1.802390 1.115154
454 0.846468 7.219229 0.687190 0.686582 -1.047815 0.544159
455 0.204812 1.070733 7.256495 -2.685041 -0.427953 -0.993980
456 6.365538 0.264690 1.801380 0.470419 -0.055207 1.113983
457 6.440842 2.299785 1.692083 -0.453320 0.213784 -0.877063
458 0.335604 1.990145 2.040935 -1.081427 1.568197 0.713654
459 5.522992 1.450478 3.276539 -1.049467 -1.911279 0.777791
460 2.071401 0.845753 5.179703 1.372821 1.444815 -0.120810
461 0.058646 0.939011 6.223166 -0.040333 -0.121869 -0.529462
462 1.031421 4.086585 7.581554 0.696622 -0.156122 -0.084670
463 1.091974 0.033305 1.239688 -2.267339 -2.464515 0.169937
464 0.536019 1.347295 0.176378 1.143644 -0.289009 -1.153792
465 6.122629 3.985712 3.107356 0.966614 -0.406375 0.790977
466 4.562602 4.624179 0.996594 0.609209 0.176961 1.141180
467 4.911982 2.283840 3.205413 0.431496 2.444936 0.960978
468 7.186611 2.643061 4.406639 0.507558 0.308969 -0.747692
469 0.827099 2.693636 6.237981 -2.069663 0.733325 1.047370
470 6.138271 3.104048 0.019570 -0.311006 -0.907284 -0.040057
471 5.804622 0.978975 1.295151 0.642846 -0.605159 -0.686465
472 7.914105 5.399412 7.656932 -0.672008 0.669205 -1.028726
473 7.004507 3.459117 1.599885 -0.882064 -0.464593 1.213233
474 0.101396 2.755687 2.538974 0.423366 -0.259049 1.095110
475 7.746897 2.505099 3.394566 0.881601 -1.616483 -0.456920
476 6.406087 4.125879 5.454630 -0.598389 -1.543055 -0.757939
477 0.930966 2.781909 7.258245 0.330951 1.065536 1.176594
478 6.714598 3.803669 0.469119 2.375963 0.794050 0.210603
479 1.960213 4.094763 7.297833 1.075642 -0.458186 -0.264068
480 5.420866 4.601985 1.349615 -1.809304 -0.897242 -2.160996
481 0.163169 5.414541 2.002387 -1.231152 0.782958 1.232737
482 0.680521 4.253738 3.632467 0.432165 -0.042363 0.122591
483 1.701472 3.402272 4.175682 0.330706 1.234575 -0.554711
484 7.348286 1.755715 7.176826 0.129779 -1.682266 1.232151
485 6.036050 4.676769 0.504594 0.668818 0.234413 2.152497
486 7.836433 4.197396 7.826310 -0.231246 -0.550048 -0.824599
487 7.679024 5.716506 1.039651 1.182332 -0.480014 0.015680
488 6.308724 3.288103 2.391461 0.417115 -0.460101 -0.241500
489 7.216666 4.161116 3.584368 0.558568 -0.818502 0.071355
490 5.766036 2.966310 3.148942 0.622455 -0.202198 -0.832280
491 7.648293 5.114715 4.814562 0.401070 1.491666 -1.256796
492 7.963352 4.931948 3.642572 -0.997582 1.097195 -0.187890
493 7.494643 7.305283 5.762240 -1.954230 1.019458 1.210330
494 1.560456 4.852062 6.566565 -2.947356 0.506791 -0.578936
495 6.433866 1.264041 6.625095 -1.702643 1.645670 2.485983
496 0.357724 0.717866 0.885901 -1.257875 1.970920 0.638634
497 6.551646 7.560461 2.675582 -1.283723 -0.157962 -0.840927
498 6.143287 4.653805 2.397817 0.025857 -0.408805 0.308339
499 0.520460 0.358695 4.591293 1.172183 -2.301431 -1.435032
500 7.152019 7.679885 7.713741 1.139110 0.206668 0.284743
501 7.970066 1.322818 5.262467 0.552750 -0.284356 0.499913
502 0.489613 6.449898 4.499070 0.944974 0.547787 0.202343
503 0.948591 1.036662 1.677391 1.373451 -0.812141 -0.415331