ITEM: TIMESTEP
99
ITEM: NUMBER OF ATOMS
512
ITEM: BOX BOUNDS pp pp pp
0 9.485000
0 9.485000
0 9.485000
ITEM: ATOMS id x y z vx vy vz 
0 9.043501 9.397529 8.906229 -0.070113 -0.847941 1.481751
1 6.213854 5.509632 4.900324 0.217425 0.784948 -0.967128
2 4.491197 6.177342 5.163689 0.589414 0.470812 -1.351007
3 7.092231 4.565807 4.938283 1.901644 0.146842 -0.339195
4 9.414468 0.367078 7.686659 2.453365 -0.625140 1.805015
5 5.504261 3.424560 4.763289 -1.107776 -0.256702 2.365328
6 0.233201 9.137578 3.698194 0.433099 -3.239717 -1.167844
7 5.879446 1.126898 6.836520 -0.914467 -0.388607 1.680148
8 7.300147 7.801952 0.839022 0.108243 -0.649732 -2.165634
9 2.744047 0.081046 9.203478 1.339168 -0.887739 -1.102560
10 6.733639 6.011822 3.173448 -1.222629 -1.315654 -1.172275
11 3.796008 0.303695 3.407385 -0.453791 1.556607 -0.796957
12 2.096395 8.269767 7.539260 1.543990 -1.362285 0.836181
13 6.240053 5.106089 7.511577 -2.693952 0.094450 0.144095
14 1.844595 6.340948 6.916428 -2.260225 0.244769 -1.497215
15 5.579656 4.052535 8.891756 0.255288 0.033935 0.111733
16 7.244432 3.246174 4.218031 0.557220 -0.770633 1.429603
17 9.046141 5.947546 2.557103 -0.532144 -0.864978 -0.991304
18 7.386298 8.990234 9.338272 -0.944934 0.152834 -0.541519
19 6.539038 8.035870 6.444446 0.259383 1.816303 2.047436
20 6.590705 3.708518 6.613368 -0.171869 3.493779 -0.993155
21 8.879341 2.441996 2.073709 0.266946 -1.220991 2.045321
22 7.235112 5.222698 7.582253 -1.634876 0.121689 1.622718
23 6.465204 4.419925 0.758388 -1.293621 -0.305345 0.537595
24 9.134862 8.338179 9.225765 1.602244 -0.350443 0.170429
25 2.364066 3.357194 2.102874 -1.017639 0.284609 2.415662
26 7.178993 5.734501 6.574020 -1.551378 2.200726 0.328841
27 0.847663 1.940383 1.855732 1.298209 -1.380960 0.355406
28 6.830530 6.676756 7.784481 0.999209 0.867973 0.891634
29 2.620066 5.304378 3.999595 -0.823724 0.158304 -2.042989
30 0.013074 6.659977 7.127159 -0.752463 -1.872450 0.582430
31 9.354600 2.977692 8.284822 -0.110408 0.317660 -1.292581
32 2.198265 0.901686 1.662860 -1.408495 -0.178678 0.090896
33 0.633784 4.081421 3.410639 0.438465 1.028806 0.248399
34 1.212396 1.456424 5.214314 0.373687 0.446969 1.563184
35 2.140273 1.122832 4.946906 -1.418551 -1.118506 2.558309
36 8.411275 6.798988 8.536994 0.558377 -1.925232 1.215511
37 3.552182 5.572402 8.068381 -1.098078 -0.719721 -1.729783
38 7.782997 5.781333 8.317153 0.756935 2.083061 -1.027723
39 7.720990 3.307684 6.821467 1.359527 -0.452116 1.044678
40 8.151521 1.169993 5.316213 -0.234794 1.779482 1.167559
41 9.306297 6.024705 4.562706 -0.082746 -0.268652 0.578930
42 6.430553 4.846752 8.700913 -1.485588 -2.418562 -0.016858
43 9.071727 0.809310 9.437334 -0.250096 -1.085641 -0.757264
44 2.487772 2.297331 7.661030 0.464219 1.267835 0.713124
45 8.075585 7.889574 3.789207 0.383213 -2.737683 -0.406774
46 6.825929 6.836164 6.672459 -0.714779 -0.331257 0.815546
47 0.628494 6.889930 4.206519 0.040231 0.589527 -0.165105
48 0.079931 1.790831 4.082459 -3.199558 1.054890 0.218233
49 1.619309 3.823575 4.479949 -0.475412 1.600314 1.932722
50 8.338037 8.475692 5.640917 -0.842297 -0.240849 0.542010
51 4.576164 2.330572 7.524408 0.734049 -0.321343 -0.002028
52 5.416118 8.513898 4.247287 -0.422932 -1.669211 -0.590608
53 1.213739 0.442424 2.078583 0.817201 1.161336 1.904454
54 1.038074 1.327757 2.815178 -0.291325 0.871060 -0.269439
55 6.817982 9.368706 1.191966 -2.006531 -1.773661 -0.307020
56 9.252708 8.096742 5.648030 -3.333465 0.555115 2.504326
57 2.059289 1.230669 9.419646 1.032413 1.601112 -1.672741
58 2.177778 5.345192 6.075426 -0.800689 0.848872 -0.875293
59 2.982284 4.918935 7.461195 -0.331066 0.033424 -1.242857
60 8.623210 7.585179 4.601538 0.917072 -1.250359 -1.682001
61 0.118991 7.005318 2.411424 -1.117713 0.369029 -0.604615
62 3.349233 7.643794 7.601165 -0.030434 0.817432 2.428587
63 9.300423 5.586173 8.667737 0.187924 -0.344905 0.614920
64 0.411808 6.435017 8.173802 -0.651910 -2.211450 2.459456
65 6.330273 7.628749 3.690268 0.905251 -0.034026 1.037457
66 3.850785 0.040717 0.120557 1.642244 -0.485345 0.314252
67 2.495785 8.636240 2.021412 -0.256551 0.628585 1.684353
68 4.265892 6.156789 6.892025 -2.661630 -2.007264 -0.193749
69 7.983153 5.066573 6.467511 -0.144594 0.602499 2.236715
70 2.947703 8.511074 9.477443 1.139592 0.341790 -0.136293
71 2.819709 4.472322 9.473412 -1.458505 -1.991394 -0.248060
72 1.118535 7.866919 6.694354 3.385695 1.250696 -0.482091
73 5.300073 0.976834 2.505389 0.014605 -1.145759 1.178721
74 9.473460 8.131198 7.316353 1.678255 0.742066 -0.605980
75 4.566894 3.788391 9.367778 -1.427894 -0.739232 -0.154753
76 1.162455 5.104009 6.971015 -0.473333 0.307654 -0.373897
77 5.876287 5.469529 3.631851 -0.766039 -0.032180 0.926540
78 4.053408 7.335138 5.071939 -1.077308 -1.786678 0.737758
79 2.891613 8.260349 6.886414 1.775401 0.362647 -0.147308
80 6.186737 5.938849 5.954132 0.775749 -0.150988 1.478705
81 4.869801 1.552953 5.651276 0.390747 -0.306989 0.594397
82 1.671554 9.104293 2.555836 -1.067030 -0.106094 -0.443902
83 2.026615 9.471304 4.978109 -0.054965 -0.782916 -0.874216
84 8.565618 1.316964 3.509353 1.172266 0.809974 -0.522655
85 1.448876 2.084996 7.296209 0.574569 -0.614760 -0.985267
86 2.672788 2.093223 4.960507 -2.344306 -0.983781 0.873593
87 8.167838 6.709388 4.864710 2.008897 0.837126 0.237999
88 5.402381 3.017980 3.672628 0.191642 3.671165 2.178590
89 7.901798 1.249488 7.136604 -0.969842 -2.267777 -1.278413
90 5.332730 5.314082 8.638252 -1.648050 0.883832 -1.991724
91 1.063266 8.670498 7.855392 -2.001104 -0.935096 1.756597
92 3.956540 8.442874 0.205530 -2.196848 -0.463506 0.554009
93 8.452705 4.466859 7.200748 -1.399531 1.236999 -1.422023
94 0.026352 5.485480 7.233446 -0.373398 -0.747049 -0.507727
95 4.863262 3.793694 5.531896 -0.870580 0.620398 0.048088
96 3.133046 0.933718 1.151870 0.616189 -0.253023 1.417768
97 1.748429 5.778362 1.633683 1.323361 -1.633535 1.884235
98 2.864679 2.512105 8.857921 -0.499916 -1.686745 -0.308977
99 6.625796 3.352602 5.623674 1.395753 0.617476 1.237577
100 5.715671 8.570073 0.378788 -1.631371 0.079807 0.993377
101 3.787212 9.308982 1.530553 -1.257291 0.130458 2.122150
102 3.997312 6.854237 5.970740 -2.207936 -0.726117 0.728196
103 3.454359 2.525891 7.778366 -0.004608 0.020594 0.929599
104 8.315546 8.032269 0.714189 1.455906 0.072459 -1.041924
105 1.402894 4.676590 2.844026 -0.443411 0.584966 -0.942322
106 6.880822 2.657575 6.729583 0.825089 2.272910 0.465149
107 0.486409 8.896284 1.925024 -0.777091 0.594055 -1.144615
108 7.070140 8.626867 7.061554 -1.459409 1.353371 -0.250302
109 3.675622 7.665614 6.636143 -0.577850 2.004246 -0.413144
110 0.359178 9.349422 0.393852 -0.280305 0.811445 -0.070496
111 4.987510 7.950108 0.022766 -0.925705 -2.315846 0.115671
112 1.907219 6.781396 2.075161 1.257277 -0.599385 1.925164
113 3.812423 9.284301 7.994304 0.605641 1.377972 -0.331104
114 1.666816 5.049343 0.837861 0.593019 0.274163 2.023723
115 0.860158 6.147341 7.101823 0.311534 -1.713054 -0.496393
116 4.073491 2.449734 2.530472 -1.162829 -0.463928 2.190347
117 4.179996 5.606371 4.008950 0.423190 1.095992 1.725867
118 8.627230 6.094786 7.707081 0.295251 -0.782659 -0.985989
119 1.777633 4.097735 1.517173 0.266560 0.623026 0.696893
120 8.923089 6.655710 5.750604 1.145484 0.448108 -1.621705
121 0.749450 2.703914 4.426639 0.713010 -0.942435 0.462458
122 0.829252 7.755117 3.757015 1.463788 -0.873377 0.133072
123 2.133726 6.690131 5.707091 0.800030 -0.285008 1.135010
124 3.843655 9.376405 4.866072 -0.593368 0.590037 -1.432376
125 7.549434 1.340453 2.826611 0.361733 2.047339 0.181197
126 7.442507 3.856768 6.039845 0.049604 -0.648509 0.320601
127 1.389336 0.244132 0.158577 -2.510655 -1.262680 0.648593
128 1.412441 3.106452 2.110818 -0.325231 1.052807 -2.124434
129 2.752449 3.413130 4.928112 -0.448101 -3.466409 -1.781655
130 9.002316 1.216650 8.248983 0.859022 -1.417231 -0.371022
131 5.319708 5.721634 1.230595 0.175396 0.456250 0.370562
132 8.716282 2.759353 5.395834 -0.636988 1.456811 -0.191104
133 2.772356 3.608756 7.421522 -0.557089 -0.417319 -0.213230
134 7.778518 2.244613 2.075996 -1.815827 0.602614 0.293990
135 5.319120 0.056323 9.090151 -1.241086 1.196056 0.371372
136 2.684769 3.491949 3.851826 -1.924013 -0.751554 0.869681
137 4.491071 3.108155 1.231029 0.603684 0.297646 0.473807
138 5.891347 0.842263 0.184373 0.335860 1.322987 1.139027
139 9.305066 0.331745 2.615975 -0.240109 1.012902 0.448088
140 5.812336 2.127028 3.943328 0.886446 1.077652 0.281972
141 2.147325 4.900860 4.698983 -1.512794 -1.577027 0.221155
142 5.620723 2.100425 6.953341 0.153281 -2.078142 -1.978529
143 1.642139 3.440847 5.439532 -2.813361 -0.941624 -0.622453
144 6.178762 0.951930 1.515468 0.736747 -0.248652 1.969698
145 4.297769 0.847455 1.398400 0.758879 -1.394101 -1.539879
146 3.779442 7.415755 9.479403 -0.555833 1.294908 1.486559
147 4.547827 9.126188 7.467952 -0.061793 -0.319453 0.050476
148 0.039202 0.808528 4.304749 1.042837 -0.577743 -0.682001
149 1.190142 3.170044 0.758048 -0.303249 0.869996 -1.040727
150 8.356542 4.727746 0.598421 -0.275150 -0.834358 1.425515
151 0.769734 9.275845 8.653304 1.907466 0.973367 2.423078
152 2.497100 9.159466 3.326484 -1.140629 -1.245810 0.119487
153 4.572011 2.633578 0.328498 0.062668 -3.281908 2.221077
154 2.877107 7.505201 3.733540 0.654575 -0.856446 0.796500
155 3.085213 5.932285 2.250303 -1.007155 -0.489012 -0.324602
156 4.383810 0.944212 4.903628 -0.541234 -0.438869 1.777095
157 3.176345 6.970955 5.156797 1.685469 -2.170918 -1.542526
158 4.166643 7.014523 1.263653 0.062874 -1.630999 -0.099509
159 0.916791 1.464091 9.359826 -0.514803 0.948441 -0.140178
160 8.224831 3.022171 0.119829 -0.128526 -1.240135 1.364366
161 5.814405 1.926631 9.112514 0.744380 -0.333428 0.214835
162 6.189608 8.954795 3.194489 3.150970 0.273580 1.867504
163 7.616155 2.821135 5.793441 -0.478278 0.329364 0.197305
164 2.967953 0.062651 5.542214 -0.421395 2.428546 -1.226909
165 4.668798 0.127669 5.661655 0.649229 2.520293 0.050347
166 8.156941 4.245376 2.844646 0.401199 0.483103 0.324453
167 2.980659 1.943308 0.345886 -0.556543 0.384337 0.349756
168 5.996346 3.828815 3.032542 -1.188533 0.698344 -0.502780
169 7.987735 2.743041 4.474664 0.351567 1.680428 -1.087427
170 2.196690 7.406560 8.312056 -1.493111 1.053923 -2.404210
171 0.581072 3.878232 0.489278 -1.094114 -3.446721 1.484811
172 1.214035 6.866236 3.180957 -0.958569 0.706482 -1.204516
173 1.790533 7.308339 4.108079 -0.215000 -0.948812 1.639091
174 3.397601 5.835479 9.312674 -2.422450 0.459443 -1.304299
175 1.799270 9.445365 8.129061 -0.351453 -0.681473 2.190363
176 2.760308 1.232672 7.237463 0.068705 -0.562137 -0.794252
177 0.551365 4.848274 5.338319 0.565113 -1.098621 0.747213
178 6.228305 2.592104 2.595642 2.989853 -0.250140 -0.268480
179 3.557309 3.925614 8.482972 0.169889 0.115318 0.355902
180 6.948294 9.348475 5.075271 0.757027 0.566338 -1.587357
181 1.402859 5.871173 9.157032 1.583527 0.123069 -0.244808
182 5.406982 6.771209 7.712088 0.892812 0.067436 -2.440611
183 7.692880 0.595579 6.155866 1.717992 3.497298 -1.822375
184 4.497120 6.801190 8.949605 1.578359 -0.568894 -0.734036
185 0.236576 3.231186 1.644099 0.794599 0.036951 -0.014566
186 1.363811 7.531954 9.231021 -0.642809 -1.561328 -1.334686
187 0.989323 1.079955 6.841861 -1.900828 -1.127782 -1.287117
188 3.252074 1.083053 2.768866 0.856159 0.218147 -0.284347
189 4.235281 5.342448 5.750727 -0.641300 1.937483 0.111780
190 3.165289 6.244523 3.665194 -0.835299 1.530485 1.096160
191 4.661306 6.357868 3.213791 -0.011116 -1.615957 -1.729378
192 5.194447 5.065680 5.848536 -0.428392 -0.618598 0.210731
193 9.183971 8.804812 2.756032 0.084304 0.435439 0.323419
194 5.972311 0.903650 4.084002 -2.310358 1.737440 -0.312475
195 2.809918 7.500597 0.788801 1.347205 -0.899438 -1.345566
196 0.600805 7.545499 7.876290 2.185010 1.626813 -0.667778
197 4.832073 7.363986 3.950313 -0.322022 0.441771 0.618060
198 6.586147 2.801147 3.500028 -0.543776 0.727782 -0.523145
199 9.262679 1.817207 8.985738 0.209511 -0.513301 -0.714335
200 5.293345 9.091048 5.076596 0.586359 0.227660 -0.864807
201 7.321816 1.467144 4.607467 -0.136250 -1.834298 1.167128
202 2.921462 7.037674 1.742768 0.825678 0.519237 1.296700
203 5.333606 0.403716 1.439625 -1.053909 -0.673939 -1.065291
204 3.325079 8.400266 1.292706 1.330773 -1.984923 -0.504920
205 9.286998 8.241392 4.359000 0.255830 0.875604 -2.604226
206 1.705098 8.363738 8.623170 -0.495506 1.623657 -0.627272
207 6.626708 0.328811 6.167874 3.001249 0.874494 -1.426839
208 0.439727 1.777538 6.459838 -1.398365 -1.176120 1.091584
209 7.331682 1.703335 1.302745 0.905083 2.601805 -0.984762
210 3.822996 3.124705 3.751731 -0.343673 -0.566237 1.722772
211 5.062658 2.385698 4.648327 0.040973 -0.147885 0.872675
212 1.683626 0.417654 6.087274 -0.142452 1.481323 -0.992112
213 7.336409 5.864080 9.325760 0.112827 -1.596488 -0.225989
214 6.061329 6.002122 7.850964 -0.234540 -0.409589 -0.006687
215 4.220660 1.187335 3.283049 0.816178 -0.346515 -1.533417
216 5.940735 4.632022 4.923139 1.972587 -3.232677 0.445699
217 0.500625 1.628531 7.966489 -0.941076 1.524568 1.913557
218 2.005029 1.684064 6.690676 -0.759580 0.733197 0.586395
219 4.327870 3.414386 7.941259 0.078596 1.056270 -0.705523
220 6.674349 1.584161 6.330566 -1.812910 0.300068 -1.003116
221 1.884493 0.200458 7.165749 -1.784442 -1.247408 -0.575791
222 9.156321 9.278903 4.676437 -1.049048 -0.527198 0.681954
223 5.852813 9.400082 2.220589 0.078878 0.984945 2.143599
224 9.419188 5.207571 0.268129 0.450208 -1.186306 -0.047160
225 3.455052 3.118870 0.446392 1.619366 1.965008 -1.262716
226 5.770154 4.522196 1.360993 -1.086962 2.814591 -0.216758
227 8.512463 3.540787 6.075336 1.487470 -0.980304 -2.402165
228 3.644523 0.141671 6.668563 1.572925 -1.142695 -0.665311
229 1.643179 4.543372 8.702985 -0.203375 -0.656579 -0.986629
230 5.398214 9.096339 6.407575 -0.089649 -0.228724 -0.876407
231 0.940767 0.449539 7.620595 0.271800 0.663713 0.494897
232 7.232133 5.703094 0.942367 -1.513062 -0.457068 -0.269868
233 3.582480 5.215083 3.144427 -0.476696 -1.049464 0.033570
234 5.136158 4.847005 4.281231 -1.101066 -1.864000 1.220422
235 8.985004 5.157719 5.557094 0.210284 -1.009995 -0.343342
236 2.038406 7.442957 6.979581 -0.474373 -1.699310 -1.295248
237 6.701448 2.799046 1.620711 -0.675458 -0.178382 -1.532586
238 6.215810 6.992312 8.580078 0.676078 0.855377 -0.908926
239 2.074760 6.004893 0.415433 0.709430 0.576580 0.485502
240 4.303178 4.119340 2.774550 1.102588 1.932191 -0.568320
241 3.817102 4.858601 8.770436 1.620644 0.327353 -0.079219
242 6.794264 9.244266 7.806347 1.167886 -0.276482 -0.476420
243 8.456668 2.306456 1.002843 -0.228677 -0.901976 -1.895380
244 4.596899 5.638982 1.967098 -1.109638 -2.219006 -1.058410
245 7.416007 9.219447 2.078876 -0.692888 -0.540485 -1.438267
246 7.035308 3.373235 0.671071 2.338167 -0.131763 -0.615703
247 8.045778 0.736592 8.826996 -0.467496 -1.304901 -2.038772
248 4.622617 3.522038 4.472290 0.923505 -1.187613 0.904855
249 1.851149 5.792897 8.045484 -0.207479 1.602941 0.285908
250 5.307725 8.498638 2.383098 -1.185122 -0.873884 2.495527
251 8.028684 3.636951 1.072175 0.270506 -1.855465 -1.097081
252 3.741689 8.357309 2.732719 2.013585 1.662289 -0.704155
253 4.940242 7.439275 5.655829 0.324557 -0.137655 1.161357
254 6.888802 6.982112 2.767209 1.884674 -1.042892 2.038055
255 0.753040 6.203056 5.659644 2.237530 1.766754 -1.558156
256 4.945322 0.730176 4.018866 -2.566148 -0.251197 -0.237991
257 7.224031 8.593159 3.065277 1.641177 -0.507648 1.240937
258 6.633397 1.636226 3.290660 -2.344939 1.120173 0.112356
259 8.972262 3.580370 0.923742 2.044437 1.005205 -0.750908
260 3.798008 8.527506 7.208460 1.587438 -2.054678 -0.636162
261 9.016373 3.923000 5.004039 -2.981581 0.035684 -0.769432
262 4.803476 2.201506 3.282562 -0.058535 0.320655 -1.790490
263 6.578003 0.692473 2.634824 -1.266013 -1.610836 -0.724626
264 8.961257 7.678350 2.942015 -2.518672 1.723036 2.260631
265 3.622259 4.100131 4.677696 -0.307311 1.779853 0.032308
266 9.429788 1.371931 2.050111 -2.455145 0.011421 -0.380049
267 4.621831 9.383985 2.485008 -0.237466 -0.067209 1.812780
268 2.442502 7.649780 6.086402 0.266995 -0.711550 0.570244
269 3.768251 6.882421 4.049880 1.668929 -0.700348 1.406973
270 8.684417 3.048207 7.107979 -0.230361 -0.704481 -0.370983
271 7.151217 2.559277 9.444814 1.447112 1.248621 1.375264
272 6.763680 4.763922 6.431972 1.839354 -3.081720 1.881226
273 3.741627 1.500571 6.969058 -0.573874 0.656743 -0.811260
274 6.343615 9.290992 9.242774 -1.079753 -0.085469 0.802190
275 6.143128 7.688326 2.562051 -0.613398 2.247540 0.562008
276 1.755939 2.676205 4.153314 3.317687 -0.468253 -0.480326
277 8.334231 0.100016 2.745660 -1.118056 0.313221 1.711129
278 2.252873 0.374933 0.702560 -1.015853 1.302582 -1.525080
279 6.951968 1.514583 0.362798 1.177377 0.174964 1.409539
280 6.249901 1.942128 0.952765 -1.084639 2.027551 -0.818946
281 5.125691 0.302899 8.061891 -1.117591 0.127906 0.767855
282 4.451317 7.587796 7.517274 -0.421624 0.858438 0.359286
283 1.391921 4.722792 6.029436 -1.431207 1.036432 2.769727
284 5.067215 6.024289 4.138401 0.091210 -0.749442 -0.603260
285 1.184531 7.242100 4.964208 1.797711 0.126847 1.576684
286 7.307181 1.399014 8.598917 -0.956102 0.589452 -0.791804
287 9.018146 2.218850 7.767310 0.046595 -1.202853 -0.996721
288 9.052224 4.472707 1.442579 1.427168 -0.930982 2.590939
289 1.830308 3.074466 7.756265 -0.371357 0.252386 -2.190479
290 8.777375 4.695108 9.064787 -1.507811 0.508447 -0.401166
291 1.453170 1.669225 8.294952 -0.695655 -0.539007 -2.063003
292 2.181773 2.805069 6.552770 -1.190296 -1.400420 -0.749120
293 7.908732 0.660526 4.232042 0.228518 0.833970 0.685187
294 0.565820 4.274586 8.918009 -0.622740 -0.419843 -2.140559
295 5.388779 7.260211 6.659567 -0.079253 -1.042934 -0.435167
296 7.805526 6.684663 0.811018 1.049058 -0.094059 -0.811832
297 6.958529 0.036001 3.495388 -1.691142 0.475472 -1.165836
298 3.339132 1.429126 4.230619 -1.003529 0.370933 -1.545196
299 0.677710 8.303724 9.128576 1.695067 0.549311 0.044441
300 2.991866 3.141861 2.955260 1.692715 -0.679413 -0.769932
301 1.612568 7.713277 2.648235 -2.189663 -0.488751 0.406789
302 5.318435 1.722190 1.427432 1.736907 -2.471808 -1.903594
303 3.741564 3.478629 6.709668 -1.043518 -0.107205 -2.256527
304 6.210985 5.247021 1.966725 0.834863 2.351547 -0.680980
305 1.262369 3.248038 3.255746 0.994720 -1.397276 0.539258
306 5.124612 4.935807 7.403604 0.995088 1.448058 0.245582
307 5.567570 4.034896 7.862513 -0.464966 -0.891654 1.353519
308 6.342705 5.927716 8.825342 -2.016742 0.156389 2.516289
309 4.610187 4.518460 1.489984 0.916168 1.233862 0.721216
310 1.083434 8.859523 5.539809 -1.531240 -0.848291 -0.224363
311 5.855168 8.939114 8.298133 -1.489721 -0.025654 1.217228
312 2.104141 8.820072 0.468474 -3.641978 -0.289999 0.323103
313 4.730590 8.421022 5.468202 -0.936743 -0.403844 -1.088890
314 7.138835 6.228295 5.093640 2.599929 -0.565594 -0.454297
315 4.421619 8.433537 4.305863 -0.961207 0.472993 0.279698
316 8.191575 8.950991 4.160669 -1.068927 -0.652407 1.494893
317 7.274013 7.210614 4.211425 -0.400589 0.699617 0.183375
318 6.785140 1.753638 7.656887 0.223221 1.267317 -0.860270
319 9.415322 2.646533 6.524048 -0.076380 -1.516892 0.916486
320 8.365202 4.963000 4.791265 0.403234 1.103695 -0.907129
321 2.553928 4.264632 8.348134 1.228990 -1.058482 -0.680798
322 6.041972 5.698415 0.416341 0.756840 -1.144333 0.021524
323 4.634806 5.088739 0.345027 0.619576 -0.922372 0.797822
324 7.684709 9.064716 0.972304 0.701371 -1.454620 0.302049
325 7.835210 0.555101 7.788465 -0.693902 0.422979 -1.049976
326 2.579972 1.494566 8.471669 -0.187292 -2.992299 -1.926167
327 5.827863 1.534988 8.106675 -0.656735 2.009587 1.424212
328 7.828761 2.224149 3.397018 0.471537 0.614093 0.086656
329 2.882832 1.666379 6.101797 -0.128401 1.490912 1.700181
330 0.269391 0.522622 1.348880 -0.723579 1.173481 -0.079859
331 3.412706 5.838428 4.959961 1.209160 0.212452 1.004541
332 8.128441 2.398098 6.556949 1.213372 1.459134 -0.094706
333 4.195687 4.396697 6.255712 0.534266 0.629626 1.331207
334 1.371339 5.819940 4.308451 1.422085 -1.365825 -1.452131
335 5.682185 2.723629 5.556050 0.099149 0.866856 -1.407037
336 0.624667 6.965321 1.114604 0.754310 1.820372 -3.010724
337 3.804801 2.119944 5.233517 1.745906 0.597669 0.570923
338 3.297494 5.276583 6.326291 2.420492 1.749183 -1.721756
339 7.484343 8.178639 4.731848 0.817278 0.961561 -2.651000
340 6.168629 9.258796 4.320962 -0.627061 1.519632 0.691477
341 5.387400 8.920019 1.304511 -2.377296 -3.042370 -0.652049
342 8.012675 4.781430 8.216553 1.182719 0.214013 1.639571
343 8.929893 6.866368 3.523444 1.938060 1.220780 -0.221656
344 0.560795 2.742024 5.645908 -2.252143 1.117628 -1.688626
345 1.175896 2.448576 6.384244 0.335081 -1.892792 1.488939
346 2.682152 0.566627 8.083856 -0.214617 -0.364442 1.199042
347 5.375571 3.129603 6.549724 0.655516 0.891869 0.027360
348 3.057643 4.381447 5.413947 0.312635 0.687471 -1.483648
349 7.048665 3.527360 8.805174 -0.423008 0.126747 -2.235891
350 2.761805 5.349654 0.923155 -1.549032 -0.222481 0.436695
351 8.661311 2.588713 3.612630 0.311126 -0.441697 -2.062115
352 5.537725 3.261310 0.207909 -1.848384 -3.057803 0.449559
353 6.907483 0.689808 7.051446 -1.404669 0.957826 0.174337
354 2.578262 5.215007 2.874959 1.470046 -0.522328 -0.186742
355 0.172844 5.070924 3.980282 -0.778730 -0.756218 1.039080
356 4.346702 6.605183 2.207606 2.088326 -0.279346 -1.176902
357 0.385497 6.264922 3.434185 0.880899 0.206968 0.917142
358 4.338457 2.468203 6.275444 0.300724 -0.016215 2.461168
359 5.721606 6.147596 2.837786 -0.976231 1.916656 -0.251074
360 4.385948 6.342660 8.060328 -0.124249 1.747049 -0.994616
361 6.547278 1.623224 2.198552 1.230417 0.766703 0.593780
362 5.956571 7.779693 1.459599 -0.274937 0.430223 -0.073714
363 0.502396 2.591620 7.501026 2.543581 0.791086 0.536391
364 2.698885 6.202830 8.314993 -0.774731 1.526255 2.141223
365 3.877198 3.498948 2.020563 -1.673652 -0.146078 2.682678
366 5.379280 6.404405 9.328900 1.495486 1.676374 -0.001264
367 6.371942 4.080722 2.138238 0.937290 0.258022 0.958926
368 0.968094 0.425677 3.548874 0.343424 -0.139334 -0.862332
369 5.008112 9.279528 3.373011 0.280998 -0.458613 -1.457287
370 4.002081 7.752001 8.533620 -0.083304 -0.503252 -1.149650
371 5.601952 4.333314 6.409579 -0.135060 -0.313133 -0.651437
372 7.749674 6.308862 3.507602 0.862978 -0.909675 1.234461
373 6.062616 7.221208 5.910892 0.090897 1.048614 -1.293709
374 8.677926 1.690423 5.974309 0.653213 -0.181416 0.394032
375 0.146832 2.879698 0.531459 1.224757 -1.176829 -0.279939
376 4.577389 9.110387 8.637226 -0.757345 -0.955821 -1.800024
377 6.618413 8.602827 1.949379 -0.324206 1.185255 -0.031363
378 8.871329 0.190682 3.581745 1.733731 0.604870 1.086815
379 5.328742 8.076350 3.341978 0.937045 -2.112523 -0.691459
380 4.783235 0.590736 6.643927 -1.339198 0.622792 -1.234860
381 0.866259 9.288159 6.654332 2.919471 -1.273367 -3.018686
382 8.458293 7.241191 1.779876 2.257788 -0.751206 0.404453
383 8.195367 8.141964 6.939766 0.749699 -1.312132 -0.203285
384 8.863746 3.478019 8.924993 -1.119028 1.645020 -0.496527
385 3.215370 8.012039 4.630021 -1.708178 -1.684396 -0.421522
386 2.927329 6.287941 0.814004 0.124963 0.015098 -0.797286
387 7.258669 6.775494 8.949983 0.612646 0.523763 -2.638185
388 1.373686 6.695944 7.801409 -1.736493 2.469918 -0.369748
389 9.451520 7.875384 1.852722 -2.836720 2.132957 -1.573325
390 0.981556 1.133599 0.918784 -1.259167 0.079719 0.010897
391 8.639001 0.181971 5.483094 1.263954 1.166480 -0.136656
392 6.929913 0.447192 8.565438 2.062103 0.963516 -0.723880
393 6.778353 4.004514 3.754802 1.116892 -1.591747 -0.274373
394 2.058226 2.139614 0.752260 1.048300 1.449374 0.710146
395 4.000865 2.216438 1.433419 0.131974 1.509923 -0.641803
396 7.034503 7.902305 8.613991 -1.435663 -0.451966 0.929805
397 6.381568 2.770784 4.540306 0.508044 -1.321214 1.512303
398 4.469973 8.334610 1.679107 1.252874 -0.103803 -2.482825
399 7.273858 8.794827 6.098588 -0.886542 -1.144417 0.169264
400 8.687957 3.475366 2.546146 -1.358531 2.887588 -1.800331
401 1.293184 9.360746 1.256184 -1.221572 -0.240625 -1.690664
402 9.131371 4.705597 6.464426 -0.454757 -0.234243 -1.638700
403 5.105599 4.073965 3.331479 0.967651 0.862878 0.183716
404 1.935459 7.845041 5.024608 -1.547613 -0.662243 1.346870
405 8.840933 4.041821 8.137548 -1.397840 -0.578472 -0.346355
406 8.812992 6.024261 1.324318 2.111065 -1.604030 0.323753
407 1.265599 4.964096 7.929759 -2.103139 -0.823374 -0.290373
408 2.128391 8.777688 5.629214 0.013211 0.751361 3.032568
409 0.314664 5.430577 1.618840 -0.332074 -0.218762 -0.602261
410 6.368915 4.815076 2.899584 0.579318 -2.593798 0.423225
411 7.793663 6.913348 6.616911 -0.364618 1.823536 -2.220790
412 7.600741 4.785261 1.591149 -1.369100 -1.037720 -0.018291
413 6.480518 3.764726 4.685602 0.067897 1.091964 -1.020055
414 8.465419 5.718465 9.255697 -1.571884 -2.885819 -1.427139
415 7.886209 7.839661 9.225612 1.285921 -0.310652 0.042308
416 8.124056 8.580359 1.836712 0.978795 0.919793 -0.410952
417 3.199300 2.135749 3.252928 0.256870 -1.243361 0.474179
418 0.919842 2.261355 0.854475 1.766704 -0.905237 -0.049298
419 0.342747 2.645141 2.690090 0.301531 3.020868 -1.128482
420 2.032569 0.605060 3.058579 1.416674 -0.343633 0.010066
421 8.910942 7.081235 9.453889 -0.434318 1.595280 0.980803
422 6.859502 3.133640 7.911456 0.365779 0.203427 1.353356
423 7.150039 4.743454 9.439169 -0.287781 0.158922 1.379206
424 6.324306 7.639097 7.571075 -1.215439 0.197489 1.075288
425 6.310421 6.513237 3.920798 -0.944424 -0.115879 0.135294
426 0.177119 7.128168 5.089182 1.384460 1.834435 0.596763
427 3.324995 8.512065 8.417849 -0.086154 2.564450 0.858905
428 8.409990 7.570063 6.073138 0.565975 -0.889819 -0.700732
429 3.755787 1.939150 8.839423 -1.161318 -1.463725 0.785971
430 0.869919 3.667060 7.459059 -2.362323 1.479162 -1.280552
431 4.749747 8.217364 6.655140 -1.812388 -0.627361 0.668628
432 1.056063 3.108487 9.136538 1.227297 1.322100 -1.137703
433 8.129604 9.322395 7.089792 1.810337 -3.033308 0.074573
434 0.199173 7.222584 6.158543 1.494156 -1.819987 -1.813324
435 0.053657 4.745215 7.970277 1.017739 0.575366 -2.853178
436 0.050325 1.547399 5.283713 -0.740542 0.028993 1.152570
437 0.631827 7.994237 2.807848 0.991770 -0.107116 0.254569
438 3.291936 6.967544 8.347745 0.232403 -0.289199 -0.473957
439 9.335556 7.318968 8.542826 1.279641 0.035405 -0.830632
440 8.665915 7.807620 7.887682 1.126482 -0.203812 -0.495582
441 2.978298 4.081834 1.537651 0.474775 -1.777962 -0.537464
442 6.568042 7.024133 0.753675 -0.337933 1.498597 1.702779
443 3.710284 8.584070 5.933362 -2.908454 0.212299 -0.223050
444 9.021641 8.828241 6.656206 -0.604162 0.661280 2.006707
445 8.263786 9.353366 8.325452 0.797047 -0.831255 -0.254536
446 7.887652 6.959603 7.611529 -1.192728 0.373555 1.515511
447 9.020355 3.928271 3.659362 0.154256 -0.485991 -0.020886
448 3.589555 8.745061 3.764214 -1.614590 1.758494 2.498232
449 1.980044 2.402261 2.897632 -0.212606 0.886778 -0.846983
450 2.769683 7.448023 2.752310 0.218669 -0.491729 -1.928332
451 7.537099 3.571340 2.007928 1.005731 1.042716 1.519111
452 8.638708 0.800504 1.018752 0.255524 -0.827876 -0.835443
453 2.235768 2.393396 1.765099 0.143123 -1.478573 0.871236
454 5.554605 6.412252 5.050968 0.291721 0.163900 -0.243137
455 1.164479 2.117969 3.372111 1.279895 1.159325 0.208198
456 1.335148 3.773773 6.488330 0.140471 -2.077956 1.003401
457 7.350401 3.228837 2.881122 0.294217 1.012641 -0.836984
458 8.721809 9.459821 1.845030 -0.380576 -1.213252 1.479688
459 1.114706 4.758983 4.246538 -0.201077 0.097592 -0.460669
460 2.376811 4.019669 6.298273 0.325191 -0.718358 -1.041059
461 7.949378 2.478890 7.788529 -0.867416 -0.186399 -0.569431
462 8.496566 1.828832 4.448280 0.866776 3.145819 -0.640902
463 5.482518 2.567424 8.143354 -1.447125 1.180212 -0.589015
464 2.084408 3.163960 9.318328 -0.497245 -0.499729 0.679358
465 5.520158 4.655560 2.389089 -0.884254 1.170945 -0.875945
466 8.437880 6.103872 6.626680 -1.866829 0.884839 0.356723
467 0.343825 6.399898 9.468846 0.609406 -0.758306 -0.683298
468 4.235770 4.314564 3.790257 0.159790 1.309988 0.764258
469 7.887190 5.802041 4.410268 -0.859223 -1.169776 -0.964838
470 1.624087 8.345062 1.508502 0.369515 0.722601 -0.379831
471 1.997329 4.379875 7.340981 -0.987406 0.427591 -1.799955
472 7.781923 3.918016 0.005659 1.948736 0.005154 2.205658
473 3.072155 4.494422 3.789854 0.320454 -1.091401 0.991260
474 3.695419 0.857606 5.583367 0.129094 -0.111080 -0.450685
475 5.589522 6.298642 6.776700 4.809986 -0.284912 0.511938
476 6.999361 7.193884 5.588271 -1.675414 -0.777422 -1.018588
477 8.325049 1.941769 8.577286 -1.099471 0.917641 1.824266
478 4.129160 5.966347 0.613609 -1.062371 -1.286515 -0.064278
479 3.910861 4.020701 0.985816 0.532001 0.248291 -0.890649
480 7.215836 7.222076 1.794001 1.642226 -1.501286 -0.689818
481 0.581501 4.152792 1.609743 1.366635 0.907400 0.313331
482 9.409739 4.567222 2.764356 0.152932 0.941483 0.255032
483 5.735167 9.416354 7.265985 -0.228976 0.478498 -2.482556
484 6.214562 0.695810 7.809895 0.127931 1.049245 -1.196600
485 2.771397 9.084041 7.523234 2.431648 0.618093 1.055468
486 9.344058 1.178663 7.116594 0.467028 0.408597 0.036169
487 5.565144 2.741869 1.547249 0.188446 -2.912365 -2.209890
488 3.828757 5.217859 1.477446 2.240947 -0.102835 1.861791
489 7.562121 4.296937 6.887517 -0.065200 -0.718584 1.946234
490 7.208193 6.122031 2.039749 -0.641821 2.343084 1.635194
491 1.205823 7.008671 6.060953 0.682880 1.163408 0.551436
492 4.583954 5.069089 3.229662 -2.567027 -0.105712 -0.510014
493 0.084138 1.848199 0.644875 1.711153 0.011154 1.219581
494 5.965279 3.242710 7.345514 1.121694 -0.740239 0.443802
495 2.377573 5.405457 9.035680 1.768715 0.456851 -1.583350
496 8.257401 8.462130 2.762134 -1.113769 1.762646 1.442373
497 8.807978 9.022950 0.648924 1.121594 0.570055 -1.034578
498 7.969337 8.381596 8.312622 -3.210702 0.126316 -0.156593
499 2.367648 1.607169 3.578721 1.408032 -0.333270 1.226009
500 5.135527 8.384231 7.779266 1.846109 -2.021808 -0.360876
501 4.509099 1.180602 8.031238 -1.358608 1.057725 2.708358
502 0.071527 0.920041 6.096726 0.643055 1.788614 -0.333392