ITEM: TIMESTEP
99
ITEM: NUMBER OF ATOMS
512
ITEM: BOX BOUNDS pp pp pp
0 8.617700
0 8.617700
0 8.617700
ITEM: ATOMS id x y z vx vy vz 
0 7.470201 0.540553 5.582913 -0.526119 1.254874 0.038774
1 1.310397 0.662468 0.781767 0.957143 0.585307 -0.363954
2 7.594415 2.217888 2.912074 -0.477334 0.660396 -0.659723
3 7.827117 7.973632 4.120639 1.856475 1.900461 -0.036212
4 1.424433 5.118444 2.200347 -1.440896 0.321742 1.250474
5 1.348685 2.518844 3.722446 -0.449383 0.175257 -0.529006
6 6.757589 7.601100 0.656414 -0.410976 -1.229234 -2.068825
7 7.832283 0.174693 6.957733 -0.822520 -0.458022 -0.959088
8 0.752777 2.383149 5.037950 0.813920 -0.092810 0.350321
9 0.299146 8.011569 4.285006 1.521447 1.013422 0.193464
10 1.373428 8.543960 0.079389 -0.303511 2.457374 1.736959
11 4.194696 7.184577 3.877415 0.301952 -2.321751 -1.757586
12 0.979117 2.492891 8.021346 -1.587285 -1.699303 -3.026002
13 8.350764 7.855167 2.981984 -1.941427 0.766475 0.208684
14 0.821822 6.005957 6.525283 1.193707 -0.160377 -0.435914
15 2.892106 5.365520 0.056510 -0.295141 0.859622 -1.038748
16 8.242158 2.419906 7.411987 0.588160 -0.582652 0.228695
17 0.819820 1.827642 1.306069 -0.083894 0.040868 -1.275801
18 6.294846 6.077690 2.029984 -1.517620 -1.404401 1.270694
19 0.112995 4.750570 3.368485 -1.087710 0.786936 0.137931
20 2.401416 2.231186 1.313596 -0.979324 -0.626167 0.251574
21 0.320694 1.636945 4.389143 -2.809832 0.199512 1.745528
22 5.808611 4.638181 6.933716 -1.138581 -0.818133 -1.957543
23 0.603426 0.681879 4.385334 -0.285402 -3.478822 2.935680
24 8.594906 2.607001 6.249996 0.596256 0.125132 -1.132103
25 0.599347 5.531040 0.041967 -1.353804 1.856227 -0.356061
26 1.732049 5.323665 6.165537 0.515830 -0.375054 0.849351
27 1.438912 2.874197 1.701460 -0.514584 1.282470 -2.261311
28 4.113382 3.616979 7.180446 -0.624639 -1.071565 0.846588
29 6.098594 4.356087 5.759091 0.100760 -1.635176 1.205890
30 5.984911 5.450451 7.436063 -1.324594 -0.612030 0.244107
31 8.548622 2.892849 8.210565 -1.204481 -1.849694 1.408313
32 1.485719 5.659261 7.893776 0.843845 1.070703 -0.318887
33 0.453464 0.402564 6.103452 0.807021 0.775039 -0.104236
34 3.368612 3.683095 5.288822 -0.323051 0.924095 0.397262
35 8.264301 1.811494 0.770779 3.042491 -1.831017 -0.198518
36 5.792418 8.246120 6.293034 0.431964 2.357987 -0.291455
37 7.585430 1.645365 5.710235 -0.414087 1.223094 -0.678867
38 1.681672 2.146099 5.724119 -0.284589 0.837283 -0.103976
39 0.678499 4.436260 0.309923 -2.067270 0.649281 0.481415
40 2.562542 1.503783 2.053511 -0.137027 0.515733 -1.920730
41 4.270936 0.866444 0.327522 1.426240 -1.356669 1.288428
42 0.942253 6.515284 0.912330 -0.085404 0.191924 2.908769
43 6.698367 3.875320 3.763524 1.251016 -1.559921 -0.076610
44 7.176138 6.502665 2.121799 -1.303474 -2.846208 -0.801339
45 1.130722 3.571220 1.005072 -0.446476 -0.699408 2.455875
46 5.159208 5.413856 0.475270 0.281899 0.307377 -0.110991
47 1.588795 2.462849 0.658326 0.875860 -1.064389 -1.809610
48 6.839513 4.066185 4.760092 0.448536 -0.695519 -0.616551
49 0.339864 0.543655 7.230238 -1.276329 -1.226740 -1.896425
50 0.104499 7.096734 4.757248 0.946592 0.909966 1.605980
51 1.844341 6.299675 7.101297 0.448191 -0.540918 -0.910373
52 2.715630 7.977404 1.556077 0.053645 -0.046616 1.168943
53 0.553191 3.212281 2.519730 0.019420 -1.373900 0.828400
54 8.216072 1.271771 7.502956 -3.262542 0.477769 0.187630
55 1.139799 6.456295 8.566886 1.089067 -0.394908 1.637610
56 2.185974 8.468121 0.838211 -0.130437 0.554790 1.132780
57 3.847677 6.855674 7.834465 -0.801145 -0.957055 1.145410
58 7.237998 6.574720 3.276429 -0.471889 -0.229493 -0.505191
59 7.918748 7.583100 6.502735 -0.324691 -1.677606 -0.994680
60 1.614307 4.518798 5.292336 -0.366201 -1.077804 -1.392000
61 7.779032 1.763532 8.401938 -1.317306 1.962989 -0.633274
62 0.436632 6.849148 2.413966 1.362548 -0.708137 0.974509
63 0.305750 5.842834 7.610085 -0.242867 0.394763 -1.166596
64 4.853555 7.162951 8.441469 1.685736 -2.048869 -0.408212
65 7.224885 1.977166 7.666508 0.453289 -2.440363 -0.037115
66 0.387250 8.494927 1.356710 -0.650158 -1.197607 -2.030550
67 2.557184 5.339974 1.505682 -0.015131 0.700860 0.803519
68 8.551207 3.378526 5.142648 -0.337860 -0.689386 -0.915935
69 0.191674 1.477188 2.400714 -0.832539 0.492814 -1.531664
70 0.280523 1.021503 0.605810 -1.213626 -0.129278 1.546883
71 1.525177 1.064113 7.142461 -0.955251 -0.410061 2.068819
72 3.251534 5.840586 0.899448 0.846907 -0.196224 1.664380
73 5.234561 6.160824 1.281257 -0.323900 -0.160619 1.204896
74 1.762283 2.257249 4.606312 2.045986 -0.065233 0.317089
75 1.017728 1.486632 3.207132 0.180807 -1.157850 1.287435
76 7.863065 2.646322 5.333399 -0.954959 -0.529059 0.610985
77 0.293358 7.980865 7.764415 -0.767102 1.767103 0.213466
78 3.279060 1.157234 7.113080 0.720543 -1.224631 -1.771288
79 5.591936 7.732251 4.228518 -1.383153 -1.259803 -2.014880
80 0.661326 3.460874 8.597977 0.573990 1.794976 0.734328
81 8.091747 3.113479 3.348147 1.446369 -0.626551 -1.338533
82 1.579603 2.829523 6.533760 -0.622220 -0.345060 -0.870436
83 2.151570 5.159236 4.714109 -0.667890 0.824217 -0.871468
84 2.439570 4.387863 6.805716 -1.887123 -0.224365 1.814665
85 7.546209 2.949698 7.716649 1.516504 -0.472309 0.940478
86 8.397717 5.200675 8.243201 1.759654 1.671571 -0.246274
87 2.325174 1.485433 6.673329 0.212169 0.812997 -0.955623
88 0.490314 2.894982 1.484119 1.614900 -0.558805 1.097315
89 1.317063 3.992464 2.115334 -2.350848 -1.312101 1.974338
90 8.154494 0.790522 4.026236 1.370174 -0.576770 1.529481
91 8.561874 2.634536 4.404387 1.105229 1.546749 1.600509
92 6.249820 6.998334 1.408100 -1.461313 0.339531 -0.829105
93 0.653472 3.625960 6.444074 -2.501987 0.623574 -0.300776
94 3.137345 7.689892 8.311509 -0.197952 -2.233261 1.808028
95 7.767762 6.654639 8.148240 -0.048336 1.358656 1.352442
96 4.064745 4.810282 1.956591 3.351095 0.968496 -0.808164
97 1.212513 0.388977 2.794790 0.863464 -0.111878 2.731437
98 8.514877 8.166657 5.608769 1.576630 0.912364 -2.245490
99 7.843090 4.136220 4.994315 0.744245 -0.931143 -1.013436
100 7.072518 3.680510 8.258939 2.966183 1.169792 -1.451386
101 4.102731 5.790686 8.574254 -1.476286 -1.064536 -0.153376
102 1.387498 7.831454 7.099809 1.590645 1.509966 -1.407410
103 1.115837 5.291170 7.094312 -0.275515 -0.715867 -0.741439
104 2.545762 6.668852 3.751051 2.670750 -0.476302 -0.391234
105 1.962606 0.542706 1.649714 1.091392 0.449490 0.905443
106 6.072891 5.004504 4.886948 -0.163510 -0.746538 2.944402
107 0.341471 4.798359 1.845883 -1.276424 0.341014 0.916493
108 2.630471 2.421883 2.755403 -0.602165 -0.812796 -0.412465
109 2.639153 4.388406 5.442927 -1.186427 1.774796 -0.977933
110 3.315616 8.238172 4.018101 -0.966123 -0.552826 0.810199
111 3.811453 3.262273 2.722006 -1.125473 1.480208 -0.255567
112 0.618887 7.460223 1.546842 1.531590 -0.391339 1.444802
113 7.059455 8.548419 1.012113 0.583003 1.142991 0.444001
114 4.356204 7.645037 0.702806 0.950570 0.539280 0.612028
115 1.183951 7.105593 4.403079 -0.744954 0.092481 -1.396450
116 2.275018 7.589358 3.431498 0.271316 -1.095840 0.839080
117 1.351936 7.028588 6.547353 0.083580 -1.081887 0.039900
118 1.407499 1.131574 8.246015 -0.201415 -0.653946 -0.515281
119 2.158076 1.705292 0.293479 0.169577 0.413959 -0.361186
120 4.820183 8.277422 1.616732 -0.303187 1.389417 0.003471
121 1.334677 1.327623 2.202741 -1.975454 -0.457354 0.185883
122 1.591169 3.101366 2.821852 -1.565284 1.555885 -2.418996
123 1.496171 5.836554 5.319017 0.525143 -1.143568 0.666607
124 1.954723 0.720211 6.110829 1.297344 -2.146986 -1.164296
125 7.133694 0.942071 7.600009 -1.574239 0.312293 1.666697
126 6.788245 1.122303 5.123494 -0.442780 -3.060683 -0.207401
127 3.029082 0.467181 5.065277 -1.009912 -1.025726 -0.639926
128 7.606891 6.318874 7.231394 -1.390925 -0.409937 -1.425091
129 2.516703 7.231340 2.327235 -1.662541 -1.409200 -0.136230
130 1.898585 1.639651 3.808556 1.581647 0.413528 -2.534280
131 3.087256 2.955051 1.891776 0.851409 -0.110649 0.150786
132 3.018604 4.102488 4.402712 -0.930152 1.088994 0.306416
133 3.285339 1.563649 4.572712 1.216692 -0.054605 -0.000257
134 3.251483 7.238663 4.523462 0.827840 -2.669050 -1.533973
135 0.999401 7.954080 5.395865 -1.475815 0.094761 -0.204144
136 6.232206 7.667515 2.164204 -0.545427 1.268610 0.423773
137 5.162146 1.316778 0.676989 -1.210872 0.629657 0.740617
138 2.073789 1.172462 3.000562 -0.019190 0.547036 -0.770398
139 3.082144 8.450724 0.524421 0.233234 -0.910178 -1.792816
140 5.640081 1.569185 2.030980 -0.131186 -2.645056 1.042545
141 1.335600 8.012021 1.118728 1.225782 0.188199 -1.459281
142 3.035480 0.900920 6.123083 -0.022392 1.469938 0.438140
143 3.191432 3.371017 8.133097 0.065573 -2.334735 -0.063870
144 2.809556 0.799891 1.275231 1.328218 0.571410 -0.064922
145 2.487155 3.197002 4.692487 0.470750 0.169790 1.541077
146 6.967062 1.305453 3.126237 -0.555740 0.392585 -0.860043
147 4.459636 1.837299 3.151220 1.559181 2.304997 -0.408476
148 4.368164 3.678743 4.483326 -0.347836 -0.108739 0.319045
149 0.678255 4.080633 5.494436 -0.020841 -0.450048 2.450011
150 4.724033 1.021797 4.367233 0.492899 -1.303020 -1.497671
151 0.325903 3.875075 1.690046 -1.433336 -0.766098 -1.813635
152 2.251113 4.942090 7.980685 -0.100674 0.537373 -0.299185
153 2.250556 3.879898 2.529268 -1.338710 0.201635 0.460266
154 0.325217 4.834894 4.740235 2.724992 0.818047 0.683601
155 4.220877 3.635356 8.379791 0.524684 0.981753 2.091194
156 3.778290 1.294998 1.668604 0.746379 0.918721 0.685308
157 5.180922 3.006209 0.182723 -0.719744 0.134733 0.212435
158 3.168924 4.239909 7.472718 -0.662960 -0.452587 1.959463
159 0.884085 2.288758 2.396182 -0.600603 1.046053 -0.838780
160 4.174144 5.362097 0.836913 0.726969 1.707014 0.723272
161 5.911157 4.036157 2.399991 -0.689020 -0.658518 1.035515
162 6.390178 5.028292 2.089976 0.963051 0.180451 0.761005
163 0.765120 5.756855 4.592428 0.115394 -1.371863 -0.197834
164 2.756774 2.950179 5.876353 0.963637 1.010167 0.053180
165 2.456158 5.613046 7.343870 1.311291 -1.106478 -0.569293
166 3.249283 7.192348 6.630319 -0.001250 -1.863145 -0.159469
167 2.088771 7.376539 1.205695 0.603105 -2.181587 -1.549438
168 3.231065 6.897604 1.662065 -0.618193 -1.047887 -0.614269
169 1.625751 7.439804 8.082013 -1.518469 0.921442 -1.145918
170 6.151689 6.331775 7.043483 -0.952129 -0.160019 -0.178501
171 4.895079 6.381953 0.404864 -0.100002 -1.144391 0.222721
172 1.308616 5.837473 3.255646 -1.267058 -0.419703 -0.547250
173 5.472800 5.190705 5.731200 -0.320459 -0.186957 -0.019184
174 4.418587 6.012880 7.357222 0.327155 -0.015117 -0.363871
175 5.860282 4.262524 8.373260 -0.704469 -0.703968 -0.603800
176 0.882074 6.987618 7.570304 -2.549389 -1.234229 1.245223
177 4.524657 8.214260 3.860513 -2.876152 1.393637 1.630818
178 0.831445 3.182864 4.270095 0.139643 1.207425 -0.880007
179 5.356937 0.151079 4.116160 1.275788 0.307572 -1.717488
180 3.436268 5.226951 7.803568 1.034639 -1.334767 -0.301473
181 5.829273 4.906778 0.971606 -0.946252 0.159171 -0.507696
182 3.653756 3.757985 1.686613 1.960329 -2.710418 -0.071280
183 1.449836 5.604878 0.992738 -2.397706 -0.426531 -2.291488
184 3.512929 8.222012 6.902465 1.239052 2.409023 -0.103678
185 2.592202 7.602760 7.311779 -0.209549 0.604549 -1.893718
186 2.687355 0.750101 3.792647 2.168066 0.789695 -0.941318
187 2.150688 6.101463 0.156460 0.220127 1.295917 -0.299233
188 1.325392 4.322235 6.861854 -0.278774 1.938363 -0.958914
189 3.156600 1.320017 2.971778 1.530026 -0.081496 -0.218419
190 3.202244 6.530319 8.609150 0.884020 0.512141 0.828683
191 0.573261 6.550229 5.561308 -1.147613 0.754957 1.346973
192 6.241497 2.050218 1.348259 0.815401 -1.411163 1.992658
193 0.009802 1.808132 5.373802 0.526341 -0.986066 2.380829
194 7.349878 1.146209 1.127139 -0.977212 -1.078006 -2.297844
195 0.589609 0.858071 1.688940 -0.834558 0.009224 1.613219
196 4.718932 3.968811 3.560687 -1.627716 -0.760566 -0.402977
197 1.521883 4.788789 3.673831 4.188876 0.965733 -1.645129
198 2.144412 8.240167 8.005369 2.502927 -0.961770 1.566996
199 3.585974 3.473974 6.226619 0.814212 -0.209626 0.853708
200 3.214531 1.599234 0.539310 1.082849 -0.781207 1.418572
201 5.198506 7.635283 2.193847 -0.304254 0.112390 2.583262
202 4.255118 2.152486 4.510458 2.722930 0.839192 1.497136
203 2.328649 3.198865 0.930660 -0.209711 -1.318475 1.730396
204 7.106390 7.601549 1.605424 0.569343 -0.290319 -0.807431
205 3.216125 5.292950 4.355366 2.151894 0.649547 0.888123
206 0.719410 3.411233 7.550770 0.770072 0.574783 -1.063034
207 3.295353 6.022642 7.023998 -0.398769 0.198655 0.324566
208 3.308578 3.535424 0.526230 1.192115 0.393923 1.392284
209 4.393377 1.965350 0.692103 0.704074 0.597904 1.368387
210 2.200252 5.888921 2.476893 0.891292 -0.109401 -1.292854
211 4.602415 2.803839 3.436496 -0.840886 0.578404 -0.204101
212 2.619112 5.412424 5.688399 -1.533916 0.812888 -1.211198
213 2.058567 4.362003 1.362211 -0.100315 2.623068 -0.219589
214 6.934790 7.781749 6.349430 -1.071369 1.795371 -0.035680
215 6.230846 1.710974 5.717899 -0.519678 -1.991035 -0.965658
216 3.645143 4.630893 0.118001 2.085859 -0.439665 -2.458005
217 2.989799 4.396032 2.064041 0.262081 -0.606239 -0.270990
218 6.443913 2.306089 2.587415 -2.869097 0.350129 -2.450811
219 1.102004 6.169861 1.986678 -1.701168 -1.774583 -0.651184
220 2.216414 5.669968 3.733850 -0.140768 0.247975 -1.936853
221 4.344138 4.579091 7.816647 -2.234996 0.261159 -0.056276
222 4.441510 1.804338 6.790411 -0.246626 1.357853 -2.854210
223 3.206783 1.056771 8.355202 0.629237 -2.109451 0.725908
224 2.157715 4.761022 0.419294 0.465868 0.206788 -1.086403
225 3.825792 8.015411 1.700827 0.446389 -0.951572 -0.694640
226 3.607846 2.943284 4.559048 -2.154202 0.988962 -0.540440
227 6.030877 5.283785 3.025465 -0.511766 0.449367 -0.906579
228 6.415373 5.940880 5.259296 -1.198261 -0.733939 0.631977
229 2.874222 6.322788 4.580703 -0.794611 0.625646 0.049028
230 2.923851 1.996175 8.104657 -0.979398 0.363623 -0.227719
231 3.460850 6.477441 2.974974 -0.730413 1.282676 -0.843475
232 8.364245 3.978438 2.430119 -0.613056 -0.552190 1.521658
233 4.945948 8.569526 7.062901 0.889187 0.023334 -0.870137
234 4.298994 7.095605 2.846481 0.657646 -0.371369 0.883408
235 6.926570 7.604435 4.306452 0.623068 1.889632 -1.086567
236 3.198283 5.103037 6.522548 -0.867361 0.257875 0.553523
237 6.130317 7.101718 6.293488 -1.009681 0.975591 0.269804
238 2.273075 0.555320 0.260683 1.935195 -1.255685 -0.172243
239 5.051484 4.422788 0.425089 -1.963862 -1.833039 0.052690
240 3.034682 4.451608 0.920387 0.825748 -1.221100 -2.966276
241 3.025261 8.505939 2.472690 0.417238 0.970976 1.443534
242 4.471340 6.093506 3.389779 0.577323 -1.480599 0.254741
243 1.672614 0.550810 4.905813 -0.505466 -1.685273 2.996768
244 5.069120 6.683666 3.970735 0.818544 -2.067584 -0.536568
245 5.184471 0.797424 3.370327 -0.032749 -2.804777 -2.227836
246 1.384328 4.503145 8.220641 -0.885391 2.330001 0.100315
247 0.252239 7.203909 8.298834 -1.725772 1.923779 -0.413918
248 4.156942 6.454905 6.435657 0.360403 0.497732 -0.121349
249 5.301720 6.084346 8.008536 1.729226 1.251860 -0.111575
250 4.994942 0.597542 2.388617 -1.436703 1.404027 -0.723918
251 2.095057 8.277751 4.522679 -1.367736 -1.107507 -1.006758
252 3.876676 4.660390 4.522799 -0.130872 1.216006 0.459172
253 4.824438 8.515245 4.921366 0.492034 0.902429 -1.482956
254 4.354594 7.206808 7.117149 -0.248504 -0.865604 2.410296
255 3.932686 1.759647 8.216244 -0.072651 2.386642 0.790821
256 4.081181 0.240681 6.308266 -1.689056 -0.235645 -0.792356
257 7.286112 0.705116 0.238985 1.030745 1.158990 1.293869
258 7.594025 7.854685 5.171306 -2.489056 0.412243 1.841001
259 1.829143 1.918332 7.784897 -1.080550 -1.159998 -1.254869
260 3.633411 2.460136 3.657753 0.071546 1.009140 0.783573
261 6.913607 8.479457 2.314229 -1.186116 -0.676099 0.551431
262 5.911151 0.521799 5.132648 0.615282 0.658738 2.059278
263 5.249449 4.981721 8.027142 -2.411655 -2.038747 -0.354744
264 5.037572 8.539525 0.612022 -0.694541 0.440100 1.651294
265 4.377355 2.833584 1.890579 0.318460 1.809793 1.016167
266 2.979077 3.466771 3.500550 1.586780 1.219251 0.003266
267 5.795980 8.248360 3.212684 -0.341264 1.543847 0.469285
268 5.981222 3.268973 3.286268 1.276829 1.097752 1.824925
269 3.492910 2.293861 1.281298 -0.489139 -0.650419 0.029142
270 2.355452 1.451241 5.350562 0.066562 0.325863 -0.885565
271 6.564459 1.438560 8.236061 -0.544780 -0.040161 1.364624
272 7.206091 2.172861 0.942636 -1.866191 1.747719 0.673741
273 4.689972 1.841101 1.814110 -0.255178 0.221318 -0.644063
274 3.427565 5.458748 2.908008 1.398189 0.949513 -0.518993
275 5.349178 2.365745 2.623795 -0.209130 1.190003 0.929664
276 5.107025 1.899107 6.094969 0.249785 1.044897 2.368715
277 1.986368 3.624590 6.142927 -1.426949 0.234677 -1.332968
278 8.192440 3.813317 8.217461 1.079337 -1.607517 -1.500850
279 5.383633 2.874010 5.727332 -0.442870 -0.033080 -0.226852
280 5.730363 4.403183 3.350410 1.079187 0.728709 -0.571910
281 5.528031 5.949806 4.633773 0.631513 0.543123 0.472627
282 6.551800 0.664049 1.740289 2.177933 0.389979 -0.533764
283 4.560421 4.453651 5.214908 2.355615 -1.486856 -0.262381
284 4.701378 3.888514 1.835696 -1.586150 0.528978 3.488956
285 2.561646 3.231706 7.003097 2.889199 0.093415 1.073877
286 5.591904 0.785947 8.544445 1.713765 0.372967 -0.610833
287 8.597683 6.317901 0.380083 0.415661 0.634359 0.671676
288 5.235351 1.851927 3.889575 0.606395 1.436498 1.229200
289 4.333167 3.240090 0.873040 -0.132231 0.966685 -0.353326
290 5.651018 6.288327 5.993134 -0.462446 1.673219 0.746289
291 2.147760 7.302470 4.416965 -0.679948 0.299326 -1.144860
292 8.328148 3.748961 6.080231 0.518073 -0.724874 -0.376379
293 3.888360 6.548423 4.931570 -1.249961 -0.238193 0.344781
294 5.283719 7.113942 3.040081 -1.116503 -1.699335 0.928580
295 7.855352 4.329320 0.665403 1.760220 -0.808666 1.958000
296 5.096867 6.585279 6.906939 0.521342 -0.188596 1.171300
297 4.872302 5.244197 2.690222 1.181541 -0.042744 -0.335032
298 7.795521 5.625972 0.823318 0.346469 2.001199 1.397100
299 6.875979 6.811628 0.030199 -0.295208 1.316694 1.142778
300 6.230334 2.865847 4.117441 -0.126031 0.898351 -0.792310
301 2.568883 7.510456 5.301015 0.925197 -0.202473 0.845244
302 6.616338 6.103261 7.966842 1.275152 2.068447 1.822798
303 5.837969 7.647766 8.488975 1.489506 1.373530 -0.868740
304 2.486561 6.292811 1.321179 -1.310155 -0.044937 -0.453597
305 5.521767 3.872324 1.238459 1.618008 -1.294825 0.809058
306 3.154923 2.248982 5.269506 2.399498 -0.296230 -0.750617
307 4.785569 6.447992 5.560139 -0.082593 -0.567890 -0.430047
308 3.611003 0.375152 3.139636 0.059500 -0.167382 1.505225
309 4.062514 1.020432 5.173609 1.529216 -1.471232 -0.331090
310 5.054862 2.374286 7.396206 0.915601 -0.607344 -0.842968
311 6.237016 6.543303 2.903805 1.935416 -0.685131 -1.470799
312 6.190703 5.244792 8.590633 -0.196920 1.452202 1.461687
313 4.868513 8.315510 5.825943 0.459312 -1.840242 -1.576911
314 3.801104 7.935848 2.806253 1.046430 -2.795987 -0.965514
315 3.950398 0.271705 2.199780 2.046378 0.119224 -3.194090
316 1.580164 6.988066 5.350618 -0.819326 -1.280202 1.992624
317 4.519998 7.455445 4.892485 0.240469 0.759827 -1.439658
318 3.066257 8.521774 5.929018 1.741450 1.350510 -1.071713
319 1.328345 0.065740 6.476199 1.329520 -0.814466 1.011426
320 4.980345 7.383053 6.083385 0.111396 -0.963252 0.546866
321 6.243951 1.259072 7.338867 -1.394785 -0.190275 -0.539486
322 0.753607 1.278265 5.955934 -0.386584 0.328250 -0.905499
323 6.999807 1.939427 4.419167 0.657641 0.522777 -0.324729
324 4.151829 0.648110 7.620517 -1.978208 0.166571 -0.227657
325 5.913239 1.309601 4.543638 -1.741268 1.911858 0.965179
326 6.282783 3.014611 0.910049 0.616261 -2.054609 -0.279870
327 1.356098 7.276529 2.076814 -1.002289 0.916360 -0.255925
328 4.670473 0.901060 1.437629 1.407860 0.382166 -0.939255
329 4.334904 2.505202 5.497596 -0.691159 1.891669 0.318941
330 5.876161 6.750598 0.392144 1.593514 1.687916 -0.778508
331 8.311451 7.767137 1.155150 -0.067779 -2.052006 -0.303861
332 7.151612 0.901861 4.120865 1.921703 -3.236445 0.436613
333 4.758899 7.049017 1.575022 1.132120 -1.976843 -0.627488
334 4.397139 3.556100 5.631739 0.325062 0.193460 0.929585
335 6.901845 2.675364 0.008991 -0.361927 1.130759 0.215837
336 7.565233 4.200587 6.585969 -1.067359 0.588211 -0.733147
337 0.298113 2.469212 3.250920 1.015309 0.221112 -0.048903
338 5.776378 2.180751 4.929538 -1.088528 -0.874147 0.712217
339 3.599045 2.054646 2.411059 1.411333 3.441864 -1.714078
340 5.931033 3.035005 8.002033 1.788980 0.102121 2.024603
341 6.912427 3.512535 7.053532 0.126756 0.529961 2.309205
342 6.289165 8.466867 4.364109 -0.528635 1.660412 0.533084
343 0.210486 1.599324 8.360992 -0.723652 -2.430299 1.965039
344 8.192373 0.207704 0.757602 1.287965 0.714654 1.428535
345 1.810148 8.250909 1.966549 -0.502472 -1.255134 -0.983163
346 4.088589 1.128042 2.564901 -0.572017 0.772865 -0.283797
347 2.925451 2.346239 6.588020 0.102716 0.433978 2.127107
348 8.311892 6.221841 6.265008 -0.353574 -1.564640 -1.372888
349 5.367437 4.897591 4.077669 -2.016974 -0.502642 0.157813
350 2.022347 3.811520 7.694175 0.501138 -0.363844 1.515425
351 3.270466 0.042688 7.982778 1.179967 -0.929860 -0.984048
352 4.098236 8.456267 0.043226 0.191030 0.325925 2.076120
353 3.663119 2.720514 0.109424 -0.156880 0.297367 1.217793
354 0.773309 3.807967 3.397092 -0.884011 -0.915993 0.358120
355 4.316447 4.218999 1.037897 -0.287854 -1.427868 1.349873
356 3.876218 7.396859 5.707532 0.041418 1.330132 0.034095
357 5.063451 4.143477 6.418221 0.271928 0.585429 -0.912099
358 6.072783 2.154411 0.263086 0.765752 -0.446533 -0.131414
359 8.097397 2.776678 1.282446 1.533838 -0.325318 0.251498
360 6.253217 8.513985 7.521048 1.294885 -1.398122 -1.411262
361 6.941438 2.768888 1.807342 -0.124043 1.293300 -0.330711
362 5.460816 3.872445 4.326367 -1.152963 1.649476 0.198939
363 7.179320 2.832364 3.647630 1.101148 0.023758 1.546940
364 7.974974 4.781169 4.086503 -0.277515 -1.077461 -1.139195
365 4.037665 5.011949 6.978747 1.175032 2.749783 -0.206660
366 6.566156 4.435097 7.620975 0.460877 0.799945 1.363894
367 5.090325 3.918616 7.456543 -0.907399 2.357111 -0.806477
368 5.838268 7.351941 7.289293 0.679446 -1.067469 0.471029
369 4.062891 6.068240 1.894321 -0.623035 -0.329698 0.805164
370 5.198000 5.452934 6.787873 -1.081924 1.428946 0.240605
371 3.653642 6.202954 3.934704 0.239247 0.233587 -0.221507
372 5.866860 3.453607 6.953398 0.562086 -1.092646 -0.663480
373 4.232246 5.362496 5.702409 -2.325988 0.733670 -1.813935
374 7.626165 4.764482 7.624598 0.441834 -0.860882 -1.895356
375 0.364815 7.996895 6.483468 1.987633 1.385124 0.990974
376 6.996592 4.782228 8.520733 2.261702 0.555888 -3.300079
377 7.092536 5.529201 3.042100 -1.511106 0.810381 0.487978
378 6.250459 0.631586 3.766570 0.217413 -0.729431 -0.861402
379 3.746710 0.867693 3.903857 -0.136757 0.884653 -2.901189
380 3.854879 8.215551 5.133950 0.578532 -0.811953 -2.325361
381 8.051765 6.920133 5.483097 -0.466055 0.187267 1.193250
382 3.811950 2.558665 7.327583 -0.604073 -0.314584 -0.829919
383 5.333658 8.451936 8.259259 0.699161 0.121351 1.027849
384 2.282320 0.065354 6.840397 1.848687 -1.436873 0.344343
385 8.413628 3.778752 4.226582 -1.125902 0.485884 -0.958457
386 5.639520 8.547503 2.277959 -0.828201 -1.000654 1.364590
387 5.547322 0.431392 1.248354 -0.360670 -2.119811 -0.826114
388 7.967506 7.106468 2.036706 0.613193 -2.423404 -0.704918
389 6.221423 6.616659 4.204812 -0.415553 -0.071468 -1.912771
390 4.506486 2.839427 6.480111 -0.024211 -1.831804 -1.339539
391 6.002661 0.832848 6.296048 -1.523764 -1.853883 0.427538
392 5.857798 2.231515 6.537878 -1.440225 1.690285 0.800944
393 6.878614 2.419721 5.429857 0.758905 2.454782 -1.299850
394 8.044798 0.428087 8.178143 0.118778 0.414803 -0.629374
395 5.525899 7.738392 5.334943 -0.438220 0.261501 1.424223
396 0.431800 6.695066 3.517424 0.767540 0.436612 0.038289
397 7.332220 3.591678 2.672518 -0.556927 -2.323192 1.815946
398 7.263432 3.540667 5.529630 -1.785087 -0.871615 -1.297921
399 0.538445 2.327385 7.066005 0.166804 1.250818 -1.425297
400 7.888518 0.287353 3.216404 -1.937506 -1.279832 -0.560014
401 0.061327 6.197938 1.466773 1.061045 -1.328970 0.160582
402 7.472078 3.519757 1.250740 1.374350 -0.592054 1.351574
403 5.995046 0.855967 2.742374 1.979298 0.745299 0.393874
404 1.473012 0.541661 4.002006 -2.497694 -1.208767 0.577636
405 7.446103 5.723549 8.416416 -1.762108 0.160655 -2.280368
406 4.687844 5.395712 4.628789 -1.033483 -0.914283 1.108058
407 7.499700 2.605469 6.567369 -1.204916 0.232848 1.605786
408 6.692566 3.873126 0.596646 -0.891582 0.731558 -0.665458
409 2.677671 2.352727 4.009633 0.431961 -1.094842 -0.105075
410 7.510005 0.850344 2.252784 -0.881301 -1.180258 -0.694373
411 0.740324 7.697203 3.022998 -0.618976 0.245239 -1.909422
412 3.868720 4.276376 3.104627 -2.107897 2.688318 -0.115309
413 6.420586 5.534176 6.330301 -0.795529 -0.084310 -1.098398
414 8.134218 2.934763 2.312704 2.052032 -0.444432 0.630264
415 7.908906 2.776604 0.304328 -1.391311 2.789034 -0.502450
416 1.545181 3.894565 4.455509 0.079142 -0.219347 -0.735857
417 0.072477 5.841562 3.705851 1.311668 -0.090375 -0.129402
418 6.068048 1.672285 3.498637 -0.219074 1.595134 -2.418218
419 7.670353 4.117891 3.354950 -1.288131 1.031523 1.701235
420 8.375345 3.561965 0.758441 -0.855972 0.247334 -0.894412
421 7.100709 4.547970 5.647350 -1.482187 -0.025252 1.458195
422 5.030432 5.093279 1.710778 -0.977200 0.546021 -0.051826
423 7.185913 4.659981 2.565857 1.001690 -1.523847 0.875887
424 0.451882 5.290922 2.633364 0.081812 -1.464858 2.713450
425 0.975040 7.422385 0.284466 0.966246 -0.912279 0.311121
426 7.342774 6.498547 4.459457 -1.419102 -1.515985 0.467428
427 8.464977 6.061751 4.940532 1.553443 -1.000268 0.248508
428 4.500443 7.870050 7.807425 -1.860520 -0.407469 2.145726
429 2.411731 6.319674 5.491330 -1.031374 0.613250 -1.281495
430 7.735636 8.103010 7.768501 -2.673043 -1.167137 -0.001248
431 7.920732 4.380049 1.567709 2.585610 -1.851023 -0.680461
432 7.964346 7.561526 0.162488 -1.380094 -1.018349 -0.290805
433 7.455278 5.460855 1.734127 2.495948 1.089877 2.717009
434 0.527468 0.088060 3.511429 -0.755193 -0.575588 -0.857058
435 0.410835 0.490210 8.291162 -1.548663 -1.086164 -1.412973
436 4.830905 0.892578 6.373491 -0.548327 0.046083 0.991949
437 1.458928 3.098019 5.119171 0.965886 -0.420598 0.912828
438 6.947818 7.535385 7.579678 0.563894 -0.081864 -0.897133
439 6.829797 5.013789 1.112280 1.759743 -1.086426 0.354767
440 5.526948 7.709133 1.094825 -0.168854 1.674347 -1.091051
441 0.483797 2.468526 0.460041 -0.463839 -0.174467 0.693270
442 2.472353 4.795998 2.895888 0.241348 -0.641280 0.064190
443 5.148536 1.394154 5.211144 0.339498 0.201407 0.519615
444 6.503157 6.061052 0.797915 -0.129089 -1.683165 1.962196
445 6.275207 7.443562 3.480028 1.437825 0.834407 -1.168115
446 6.524707 2.528988 7.115911 0.128025 -0.245435 -2.072992
447 5.651415 3.016273 1.857524 -1.151332 -0.299520 0.347097
448 6.970824 0.418177 6.414906 1.011078 -1.017032 0.150043
449 2.827271 6.624611 7.657562 0.908504 0.577764 0.137887
450 1.808437 3.660256 0.098119 0.883151 2.723696 0.796799
451 6.925427 8.487173 3.605534 -1.996011 1.272423 0.297624
452 7.746931 6.829663 1.031923 -0.493891 -0.655916 -0.479308
453 5.130044 1.817155 8.380991 -2.049539 0.901128 -1.110617
454 3.918662 4.432894 6.209195 3.096023 -1.132692 0.818794
455 6.545617 8.354185 5.448710 1.714850 -0.396616 0.172980
456 6.281860 1.021401 0.742584 0.784042 0.121816 -2.593986
457 8.235365 1.014097 1.521311 -0.415585 -1.306073 0.089147
458 7.953243 1.964645 3.889096 0.665610 1.586170 -0.792399
459 8.462206 0.417045 2.419169 0.248693 1.002608 -0.600515
460 1.485661 0.168527 7.532116 0.436279 3.049306 -1.334159
461 6.382167 2.943963 6.189358 -0.080026 1.189506 -1.727331
462 8.268443 0.943736 6.004269 2.605058 -1.755336 -0.328937
463 2.525392 0.970512 7.659651 -1.241479 1.732115 2.440039
464 6.502192 5.003352 3.899012 0.516805 0.690900 1.214323
465 7.325572 7.559912 3.113064 -0.891809 2.211495 -0.203660
466 7.746064 8.342607 1.678256 -2.328190 0.728799 -0.495888
467 7.197638 0.037293 4.681107 0.239212 -1.246342 -1.438242
468 5.428753 6.388613 2.236976 -2.011459 -1.724070 0.479748
469 5.007991 1.258804 7.501347 -0.916917 -0.477650 0.128216
470 0.470359 4.374952 7.619482 -1.953604 -0.693253 0.734433
471 5.173869 2.442130 1.080686 0.880183 -0.492321 0.752784
472 1.031556 4.621599 1.192209 -1.456775 -0.700895 -0.255873
473 7.467193 1.986017 1.905325 -1.190942 -0.758613 0.170158
474 7.746235 5.734724 3.863200 0.875466 1.361029 1.919150
475 8.466373 3.478330 7.155168 -1.000022 0.440531 -0.406911
476 1.635411 2.932923 7.447610 -0.344588 -0.004713 -1.604542
477 8.281934 0.018292 4.771418 0.900093 -1.606192 0.350293
478 8.457147 4.664508 5.915994 0.066172 -1.669918 0.994147
479 3.348386 6.067470 5.898813 1.322368 0.419001 -1.639120
480 3.900913 6.702775 1.039891 0.440087 -1.453968 -2.209536
481 8.038484 1.254993 3.184294 -0.171834 0.487896 0.281553
482 4.114547 5.190037 3.668272 -0.168466 0.337156 0.015338
483 2.315474 7.420452 0.277951 0.428856 0.083314 -0.173373
484 3.343739 7.386634 0.689218 0.951990 0.886379 -0.028508
485 7.554196 5.285985 4.867456 0.713364 -0.649469 0.598169
486 6.691524 3.816701 1.827350 2.808214 0.282457 0.246946
487 8.315412 5.248472 6.933424 0.528853 0.825030 -2.148194
488 1.656828 6.870017 3.000920 1.258352 0.849619 -0.544085
489 5.605309 5.931170 3.543647 0.152493 2.790349 -0.193220
490 8.100039 4.957880 2.653692 1.671140 0.440469 -0.747631
491 7.476126 3.297107 4.444772 -0.956816 0.728676 -0.600101
492 7.079331 6.374307 6.311133 -0.508753 -1.306927 -0.460245
493 1.605062 6.178915 4.310035 -1.153806 0.423552 2.612055
494 2.050594 8.363669 5.556823 0.194533 -0.542416 -1.305225
495 7.707759 5.415060 5.931779 0.289193 2.723849 0.266473
496 8.187913 6.342919 2.937744 -1.101694 -0.546611 -0.590122
497 7.012847 5.226551 7.116753 -2.252921 -0.521312 0.249923
498 6.766773 8.195484 8.429348 -1.093076 1.320485 -0.105725
499 1.247997 8.037842 3.965077 -1.059333 0.839820 0.764051
500 4.998431 3.596230 2.680592 0.041675 1.589576 -0.573393
501 6.035945 3.324342 5.164075 2.112644 0.104439 1.969201
502 8.042183 6.906872 3.913573 1.232745 -0.390092 0.384736